ITEM: TIMESTEP
1528820
ITEM: NUMBER OF ATOMS
256
ITEM: BOX BOUNDS pp pp pp
0 8.0
0 8.0
0 8.0
ITEM: ATOMS id xs ys zs
1 .01250 .00250 .00500
2 .00375 .11625 .11500
3 .11500 .00375 .11625
4 .11500 .11625 .00250
5 .23000 .00875 .00375
6 .22750 .11500 .11500
7 .34125 .01000 .11750
8 .34000 .11625 .00375
9 .50250 .00250 .00250
10 .50750 .12875 .12875
11 .63250 .00500 .12750
12 .62750 .13500 .01250
13 .75375 .00375 .00250
14 .76125 .12875 .12875
15 .87875 .00875 .13250
16 .87750 .13000 .00500
17 .00250 .23000 .00750
18 .00500 .35000 .11500
19 .11625 .23625 .11750
20 .11500 .34250 .00375
21 .22875 .22875 .00375
22 .22750 .34250 .11875
23 .34125 .22875 .11500
24 .34000 .34125 .00375
25 .50250 .25250 .00750
26 .50375 .38375 .12750
27 .62875 .25250 .13000
28 .62875 .37875 .00375
29 .75250 .25500 .00625
30 .76000 .37875 .13000
31 .88750 .25250 .12750
32 .88125 .38625 .00375
33 .00875 .50250 .00375
34 .00375 .62750 .12875
35 .12750 .51250 .12750
36 .12750 .62750 .00375
37 .25375 .50250 .00750
38 .25250 .63750 .12875
39 .38500 .50250 .12875
40 .37875 .63500 .00250
41 .50375 .50250 .00625
42 .50375 .62750 .12875
43 .63000 .50250 .12875
44 .62750 .62875 .01125
45 .75250 .50375 .00625
46 .75250 .63625 .13000
47 .87750 .50375 .12875
48 .87875 .63500 .00250
49 .00500 .76125 .00250
50 .00375 .87750 .13500
51 .12875 .75500 .12750
52 .12875 .87750 .00375
53 .25375 .75500 .00250
54 .25375 .87750 .13500
55 .37750 .75375 .13375
56 .38750 .87875 .00250
57 .50250 .75250 .00375
58 .50375 .87875 .12875
59 .62875 .75500 .12875
60 .62875 .88000 .00250
61 .75250 .75250 .00375
62 .76000 .87750 .13250
63 .87750 .75250 .12875
64 .87750 .87750 .00250
65 .00375 .00500 .22750
66 .00500 .11500 .34000
67 .11625 .00250 .34125
68 .11750 .11750 .22875
69 .22750 .00250 .23625
70 .22875 .12250 .34875
71 .34125 .01250 .34125
72 .34125 .11875 .22750
73 .50500 .00375 .25250
74 .50250 .12875 .37875
75 .63750 .00250 .38000
76 .62750 .12750 .25375
77 .75375 .00875 .26250
78 .75250 .12875 .37875
79 .87750 .00375 .37875
80 .88750 .12750 .25375
81 .00250 .22875 .23125
82 .00250 .34250 .34125
83 .12250 .22875 .34500
84 .11750 .34000 .23000
85 .23000 .22875 .22750
86 .22875 .34125 .34000
87 .34000 .22750 .34125
88 .34125 .34125 .23250
89 .51250 .25875 .25250
90 .51000 .38250 .37875
91 .62750 .25625 .37750
92 .62750 .37875 .25375
93 .75500 .25500 .25250
94 .75250 .38000 .37750
95 .87750 .25250 .37750
96 .87875 .37750 .25375
97 .00625 .50375 .25250
98 .00250 .62875 .38625
99 .12875 .50250 .37750
100 .12750 .62750 .25250
101 .26000 .50625 .25375
102 .26125 .63000 .37750
103 .38750 .50250 .37750
104 .38375 .63000 .25250
105 .50250 .50375 .25250
106 .50375 .63000 .37750
107 .62750 .51125 .37750
108 .62875 .63000 .25250
109 .76000 .51000 .26000
110 .75250 .62750 .37875
111 .88125 .50375 .37875
112 .88500 .63375 .25375
113 .00375 .75375 .25375
114 .00250 .88750 .37875
115 .12875 .75375 .37875
116 .12875 .87750 .25500
117 .25375 .75375 .25500
118 .25375 .88125 .37750
119 .37750 .75250 .38750
120 .38625 .87750 .26250
121 .50250 .75250 .26125
122 .51250 .87875 .37875
123 .62750 .75250 .37875
124 .62875 .87750 .25250
125 .75500 .75375 .25375
126 .75375 .88000 .37875
127 .87875 .75750 .37750
128 .88000 .87875 .25250
129 .00375 .00375 .50250
130 .00625 .12750 .62875
131 .13625 .00375 .63750
132 .13250 .12875 .50250
133 .25250 .00375 .50375
134 .25750 .12750 .62875
135 .38000 .00250 .62750
136 .37875 .12875 .50375
137 .50250 .00250 .50500
138 .51000 .13500 .63000
139 .62875 .00250 .63250
140 .63000 .13500 .50375
141 .75375 .00250 .50250
142 .75250 .12875 .62750
143 .87875 .00375 .63250
144 .87875 .13625 .50375
145 .00750 .25375 .50250
146 .00375 .37875 .63000
147 .12750 .25250 .62750
148 .13250 .38625 .50250
149 .25250 .25250 .50625
150 .26000 .38625 .63000
151 .37875 .25375 .62875
152 .38000 .38000 .50375
153 .50375 .25375 .50375
154 .50250 .37875 .62750
155 .62750 .25375 .62875
156 .63250 .38500 .50250
157 .75250 .25250 .50250
158 .75375 .37750 .62875
159 .88000 .25250 .62750
160 .87875 .37875 .50250
161 .00375 .50375 .50375
162 .00375 .63625 .62750
163 .13250 .50500 .63625
164 .12750 .62750 .50375
165 .25250 .50250 .50875
166 .25250 .63000 .62875
167 .37750 .50375 .62750
168 .38250 .62750 .51250
169 .50375 .50375 .50250
170 .50375 .62750 .62875
171 .62875 .50250 .62750
172 .63375 .62750 .50250
173 .75250 .51250 .51125
174 .75250 .62875 .62875
175 .87750 .51125 .63750
176 .87875 .62750 .50375
177 .01250 .75250 .51250
178 .00375 .87750 .62875
179 .12750 .76125 .62875
180 .13500 .87875 .50250
181 .25250 .75375 .50250
182 .25750 .88000 .62875
183 .37875 .75250 .62750
184 .37750 .88750 .50375
185 .50375 .75375 .50375
186 .50250 .87875 .63125
187 .62875 .75375 .62875
188 .62750 .88000 .50375
189 .75625 .75375 .50375
190 .75375 .88500 .63000
191 .87875 .75250 .62750
192 .87875 .87875 .50250
193 .00375 .01000 .75250
194 .00750 .13625 .88375
195 .12750 .00500 .87875
196 .12875 .12875 .75375
197 .25750 .00375 .75375
198 .25250 .12750 .88625
199 .37750 .00250 .87750
200 .38000 .12750 .75250
201 .50375 .00750 .75250
202 .51250 .13625 .88500
203 .62750 .00250 .87875
204 .63000 .13125 .75250
205 .75375 .00375 .76125
206 .76000 .13250 .88375
207 .87750 .00500 .87875
208 .87875 .12875 .75250
209 .00375 .25250 .75500
210 .01250 .38625 .87875
211 .12750 .25375 .88750
212 .13000 .37875 .75250
213 .25250 .25250 .75500
214 .25250 .37750 .88750
215 .38125 .25875 .87750
216 .37750 .37750 .75375
217 .50375 .25250 .75250
218 .51125 .37875 .87875
219 .63250 .25750 .87750
220 .62875 .37875 .75625
221 .75250 .25500 .75375
222 .75250 .37875 .87750
223 .87875 .25375 .87750
224 .87750 .38750 .75375
225 .00250 .50375 .75625
226 .01125 .63500 .88375
227 .12750 .50500 .87750
228 .12875 .62750 .75250
229 .26000 .50250 .75250
230 .25250 .62750 .87875
231 .38000 .50500 .87875
232 .37875 .63000 .75375
233 .51125 .50250 .75250
234 .50375 .62750 .87750
235 .63000 .50500 .88750
236 .63000 .62750 .75375
237 .75625 .50250 .75375
238 .75375 .62750 .87875
239 .88625 .50375 .88750
240 .87750 .63625 .75375
241 .00375 .75750 .75375
242 .00375 .87875 .88000
243 .13625 .75250 .88250
244 .13125 .87750 .75375
245 .25375 .75250 .75750
246 .25875 .88750 .88000
247 .37750 .76000 .87875
248 .37875 .87750 .75250
249 .50500 .76250 .75375
250 .50250 .87750 .87750
251 .62875 .76125 .88500
252 .62750 .88000 .75250
253 .75250 .75625 .75250
254 .75375 .88000 .88500
255 .87750 .75375 .88000
256 .87750 .87875 .75250
