ITEM: TIMESTEP
1528240
ITEM: NUMBER OF ATOMS
256
ITEM: BOX BOUNDS pp pp pp
0 8.0
0 8.0
0 8.0
ITEM: ATOMS id xs ys zs
1 .00375 .01125 .00250
2 .00375 .11500 .11625
3 .11625 .00250 .11500
4 .11875 .11750 .00375
5 .22875 .00750 .00625
6 .23625 .11500 .11625
7 .34000 .00875 .11500
8 .34375 .11625 .00375
9 .50375 .00500 .00500
10 .51000 .12875 .13750
11 .63750 .01250 .12875
12 .63500 .13000 .00500
13 .75250 .00250 .00250
14 .75250 .12750 .12875
15 .87875 .00250 .13250
16 .87750 .13375 .00375
17 .00250 .22875 .00375
18 .00375 .34000 .11500
19 .11625 .22750 .11500
20 .11750 .34125 .00500
21 .22750 .23375 .00625
22 .22875 .34125 .11750
23 .35000 .22875 .11625
24 .34375 .35000 .00375
25 .51000 .25250 .00250
26 .50250 .37750 .12875
27 .63000 .25500 .12875
28 .63000 .37750 .01000
29 .75250 .25375 .00375
30 .76125 .37750 .12875
31 .88625 .25250 .12750
32 .87750 .37875 .00375
33 .01125 .50250 .00500
34 .01000 .63125 .12750
35 .12750 .50250 .13625
36 .13000 .62875 .00375
37 .25375 .50375 .00250
38 .25250 .62875 .12750
39 .37875 .50250 .12750
40 .37750 .63625 .00375
41 .50250 .50375 .01125
42 .50375 .62875 .13000
43 .62875 .50375 .13500
44 .62875 .62875 .00250
45 .75250 .51250 .00250
46 .75250 .63375 .12750
47 .87750 .50500 .12750
48 .87875 .62750 .00250
49 .00250 .75250 .00375
50 .00250 .88125 .12875
51 .12875 .75500 .13125
52 .12750 .87750 .00375
53 .25250 .75750 .00500
54 .25750 .87875 .12875
55 .37875 .75375 .12875
56 .37875 .87875 .00250
57 .50250 .75250 .00375
58 .50250 .87750 .13750
59 .62875 .75375 .12875
60 .62875 .87750 .00375
61 .75375 .75250 .00625
62 .75375 .87750 .12875
63 .87750 .75375 .13500
64 .87875 .88625 .00375
65 .00250 .00625 .22750
66 .00375 .11625 .34000
67 .11625 .00250 .34000
68 .12375 .11500 .23500
69 .22875 .00500 .23000
70 .23375 .11625 .34000
71 .34000 .00250 .34125
72 .34250 .11625 .22750
73 .50375 .00250 .25250
74 .50250 .12875 .37750
75 .62750 .00375 .37750
76 .62750 .13000 .25500
77 .75625 .00375 .25250
78 .75250 .12750 .37750
79 .87875 .00375 .37750
80 .87750 .12750 .25375
81 .01125 .23375 .22750
82 .00250 .34125 .34000
83 .11500 .22750 .34125
84 .11625 .34000 .23375
85 .22750 .22875 .22875
86 .22750 .34125 .34000
87 .34000 .22875 .34125
88 .34000 .34000 .23750
89 .50250 .26250 .25375
90 .50375 .37875 .37750
91 .63625 .25250 .38125
92 .62750 .37750 .25375
93 .75375 .25500 .25250
94 .75375 .37875 .37750
95 .88125 .25375 .38000
96 .88625 .37875 .25375
97 .00375 .50375 .25375
98 .00750 .62875 .38625
99 .12750 .50250 .37750
100 .12750 .62750 .25500
101 .25250 .50250 .25625
102 .25250 .62875 .37875
103 .37750 .50375 .37750
104 .37750 .62750 .25500
105 .50375 .50250 .25250
106 .50500 .63625 .37750
107 .63000 .50500 .38000
108 .62750 .63750 .25250
109 .75375 .50250 .26125
110 .76250 .63625 .37750
111 .88000 .50250 .38000
112 .88000 .62750 .25250
113 .00375 .75375 .26250
114 .00375 .87875 .37875
115 .13125 .75375 .37875
116 .12750 .88000 .25375
117 .25250 .75500 .25375
118 .25250 .87750 .38000
119 .37750 .75250 .37750
120 .37750 .87875 .25375
121 .50250 .75250 .25375
122 .50375 .88750 .37875
123 .63000 .76125 .37750
124 .62875 .87875 .25250
125 .75375 .75375 .25500
126 .75500 .87875 .37875
127 .87750 .75250 .38000
128 .87750 .87750 .26250
129 .01000 .00250 .50375
130 .01125 .12875 .62875
131 .12750 .01000 .62750
132 .12750 .13375 .50250
133 .26250 .01125 .51250
134 .25625 .12875 .62875
135 .37875 .00250 .62750
136 .38000 .12875 .50250
137 .50375 .00250 .50250
138 .50375 .13000 .62750
139 .63500 .01250 .63000
140 .62750 .12750 .50500
141 .75375 .01125 .50375
142 .75375 .12750 .63500
143 .87750 .00375 .63000
144 .87875 .13000 .50375
145 .00375 .25375 .50375
146 .00625 .37750 .62875
147 .12875 .25250 .62750
148 .13375 .37750 .50250
149 .25375 .25375 .50250
150 .25250 .37875 .62875
151 .37875 .25375 .62875
152 .37750 .38250 .50500
153 .51125 .26250 .50250
154 .50250 .37750 .62750
155 .62750 .25250 .63625
156 .62875 .38375 .50875
157 .75250 .26250 .50250
158 .75250 .38750 .62875
159 .88750 .25375 .63750
160 .87750 .37750 .50375
161 .00375 .50250 .50500
162 .00375 .62750 .63000
163 .12875 .50375 .62875
164 .13000 .63000 .50375
165 .25500 .50250 .50375
166 .25250 .63250 .63000
167 .37875 .50250 .62750
168 .38250 .62875 .50250
169 .51250 .51250 .50375
170 .50375 .62875 .62875
171 .62750 .50250 .62875
172 .63625 .62875 .50500
173 .75250 .51125 .50250
174 .75250 .62750 .62750
175 .88000 .50250 .62750
176 .88000 .62875 .50750
177 .00375 .76000 .51250
178 .00375 .87750 .63000
179 .12875 .75250 .63250
180 .12875 .88250 .50375
181 .25250 .75375 .50250
182 .25375 .87750 .63625
183 .37750 .76000 .62750
184 .38625 .87875 .50375
185 .50375 .75250 .50250
186 .50250 .87875 .63000
187 .62750 .75500 .62875
188 .63500 .87875 .50375
189 .75250 .75875 .50375
190 .76125 .88625 .62875
191 .88500 .76125 .62750
192 .87750 .87750 .51000
193 .00250 .01125 .75250
194 .00625 .12875 .88375
195 .13000 .00375 .87750
196 .12750 .13125 .75375
197 .25375 .00375 .75375
198 .25500 .12875 .88750
199 .38000 .00500 .88125
200 .37750 .12875 .75375
201 .50250 .00250 .75500
202 .50250 .12875 .87750
203 .62750 .00375 .88125
204 .62750 .12750 .75375
205 .75625 .00250 .75250
206 .75500 .12750 .87750
207 .87750 .00875 .87750
208 .88000 .12875 .75375
209 .00250 .25500 .75250
210 .00250 .37875 .87875
211 .12750 .26000 .87875
212 .12875 .38625 .75375
213 .26125 .25250 .75750
214 .25250 .37750 .87875
215 .37875 .25250 .87875
216 .37875 .37750 .75375
217 .50375 .26000 .75625
218 .50375 .37750 .87750
219 .62750 .25250 .88125
220 .62875 .37875 .75375
221 .75250 .25375 .75250
222 .75375 .38000 .88750
223 .88000 .25375 .88750
224 .87750 .37750 .75375
225 .00250 .50875 .75250
226 .00500 .62875 .88000
227 .12750 .50250 .87750
228 .12750 .63500 .75875
229 .25875 .50375 .75500
230 .25625 .62750 .87750
231 .37750 .50875 .87875
232 .37750 .62875 .75500
233 .50625 .50500 .75375
234 .50375 .62875 .88000
235 .62875 .50250 .87750
236 .62750 .62750 .75250
237 .75375 .50375 .75250
238 .75500 .62875 .87875
239 .88250 .50375 .87875
240 .87750 .63000 .75250
241 .00375 .75375 .75250
242 .00250 .87875 .88000
243 .12875 .75250 .87750
244 .12875 .87750 .75375
245 .25250 .75375 .75500
246 .25375 .87750 .88375
247 .38000 .75250 .88000
248 .38250 .87875 .75375
249 .50375 .75375 .75375
250 .50250 .87875 .88750
251 .62875 .75375 .88000
252 .62750 .87750 .75250
253 .75375 .75375 .76125
254 .75375 .87750 .87875
255 .87750 .75250 .87875
256 .87875 .87875 .75250
