ITEM: TIMESTEP
1528260
ITEM: NUMBER OF ATOMS
256
ITEM: BOX BOUNDS pp pp pp
0 8.0
0 8.0
0 8.0
ITEM: ATOMS id xs ys zs
1 .00500 .00375 .00625
2 .01250 .11625 .11500
3 .11625 .00750 .12000
4 .11875 .11875 .00375
5 .22875 .00375 .00500
6 .23000 .11500 .11625
7 .34125 .00375 .11500
8 .34125 .11750 .01000
9 .50375 .00375 .00375
10 .50250 .12875 .12750
11 .62875 .00375 .12750
12 .63250 .12750 .00250
13 .75500 .00375 .00750
14 .76250 .13000 .12875
15 .88125 .00250 .12875
16 .88125 .13000 .01250
17 .00250 .22750 .00250
18 .00250 .34000 .12500
19 .11625 .22750 .11625
20 .11500 .34500 .00750
21 .23125 .22750 .00875
22 .23000 .34000 .11625
23 .34000 .23500 .11625
24 .34125 .34625 .00375
25 .50500 .25500 .00250
26 .51000 .38000 .12750
27 .62875 .25875 .12750
28 .62750 .38500 .00375
29 .75875 .25250 .00500
30 .75250 .38000 .13000
31 .87875 .25375 .13125
32 .87750 .37750 .00375
33 .00375 .50250 .00500
34 .01000 .63625 .12875
35 .12875 .50250 .13750
36 .12875 .63625 .00250
37 .25250 .50375 .00250
38 .25375 .62875 .12750
39 .37875 .50250 .13750
40 .37875 .62875 .00375
41 .50250 .50250 .00250
42 .51250 .63000 .13125
43 .62750 .50375 .13625
44 .62750 .63125 .01250
45 .75375 .50250 .00500
46 .75250 .62750 .13250
47 .87750 .50250 .13250
48 .88500 .63500 .00250
49 .00500 .76000 .00750
50 .00375 .88125 .12875
51 .12750 .75250 .12875
52 .13375 .88000 .00375
53 .25250 .75250 .00500
54 .25250 .87750 .12750
55 .38750 .75375 .12875
56 .37875 .87750 .00375
57 .50750 .75250 .00375
58 .50250 .88000 .13250
59 .62875 .75500 .12750
60 .62875 .88000 .00250
61 .75250 .75375 .00250
62 .75250 .87875 .12750
63 .87875 .75500 .12750
64 .87750 .87750 .00625
65 .00250 .00250 .23750
66 .00375 .11500 .34125
67 .12500 .00250 .34125
68 .11500 .11625 .22875
69 .22875 .00250 .23750
70 .22875 .11625 .34125
71 .34375 .00250 .34125
72 .34000 .11625 .23000
73 .50375 .00375 .25375
74 .50375 .12750 .37875
75 .62750 .00375 .37750
76 .62875 .12750 .25500
77 .75375 .00375 .25875
78 .75250 .13000 .37875
79 .88625 .00375 .38000
80 .87875 .12875 .26250
81 .00250 .22750 .22750
82 .00750 .34625 .34125
83 .11625 .22875 .34125
84 .11625 .34250 .22875
85 .23000 .22750 .23125
86 .22875 .34000 .34250
87 .34125 .22875 .34000
88 .34375 .34250 .22750
89 .50250 .25250 .25250
90 .50375 .38000 .37750
91 .62750 .25750 .38500
92 .62750 .38125 .25250
93 .75250 .25375 .25375
94 .75250 .37750 .38375
95 .87875 .25375 .37875
96 .88000 .37750 .25375
97 .00625 .50375 .25375
98 .00250 .63500 .37750
99 .12875 .50375 .38000
100 .13250 .63000 .25250
101 .25250 .50750 .25250
102 .25375 .62750 .38250
103 .37875 .50250 .38000
104 .37750 .62875 .26125
105 .50250 .50375 .25375
106 .50250 .62750 .37875
107 .62750 .50500 .38000
108 .62750 .62875 .25750
109 .75875 .50250 .25375
110 .75250 .63625 .37750
111 .88500 .50250 .37875
112 .88750 .63250 .25250
113 .00250 .75250 .25250
114 .00250 .88000 .37750
115 .13000 .75375 .38500
116 .12750 .87750 .25375
117 .25375 .76125 .26125
118 .25250 .87750 .38500
119 .37750 .75375 .37875
120 .37750 .87875 .26125
121 .50500 .75750 .25250
122 .50375 .88625 .37750
123 .63625 .75250 .38000
124 .62750 .88000 .25375
125 .75250 .75250 .25250
126 .75375 .87750 .37750
127 .87750 .75250 .37875
128 .88250 .87750 .25375
129 .00375 .00250 .51125
130 .01000 .12875 .63000
131 .12750 .00375 .63250
132 .12875 .12750 .50375
133 .25375 .00250 .50500
134 .25250 .12875 .62875
135 .37750 .00375 .62875
136 .37750 .12875 .50750
137 .50375 .00250 .50500
138 .50250 .12750 .62875
139 .62750 .00250 .62750
140 .63000 .13000 .51250
141 .75250 .00375 .50375
142 .76125 .13000 .62875
143 .87750 .00375 .63500
144 .87875 .13000 .50375
145 .00500 .26125 .50500
146 .00500 .37750 .62875
147 .12875 .25500 .63000
148 .12875 .37875 .50500
149 .25375 .25375 .50250
150 .25250 .38000 .62875
151 .37750 .25250 .63000
152 .37750 .37875 .50250
153 .50250 .25375 .50625
154 .50375 .37750 .63750
155 .62875 .25250 .63125
156 .62750 .37875 .50375
157 .75250 .25500 .50375
158 .75500 .37750 .62875
159 .87750 .25250 .63500
160 .87875 .38000 .50375
161 .00375 .50250 .50375
162 .00250 .63625 .62750
163 .12875 .50750 .62750
164 .13000 .63750 .50250
165 .25625 .51125 .50375
166 .25375 .63000 .62750
167 .37750 .50500 .62875
168 .37875 .63750 .50625
169 .50250 .50375 .50250
170 .50875 .62750 .62750
171 .62750 .50250 .62875
172 .62750 .63625 .50375
173 .75375 .50375 .51000
174 .76000 .63250 .63250
175 .87750 .50500 .62750
176 .88375 .62750 .50375
177 .00500 .75250 .50250
178 .01000 .88000 .62750
179 .12750 .75500 .63000
180 .12875 .87875 .50375
181 .25375 .75500 .51250
182 .26250 .87875 .62875
183 .37750 .76000 .63750
184 .37875 .88625 .50500
185 .50250 .75375 .50500
186 .51000 .88625 .62750
187 .62875 .75375 .62875
188 .63750 .87750 .50750
189 .75500 .75750 .50375
190 .75250 .87750 .62750
191 .87750 .75250 .63500
192 .88375 .87875 .50250
193 .00250 .00250 .75250
194 .00375 .13000 .88625
195 .12875 .00375 .87875
196 .12750 .12875 .76125
197 .25375 .00250 .76125
198 .25625 .12875 .87875
199 .37750 .00375 .88000
200 .37750 .13125 .75250
201 .50250 .00250 .75375
202 .50375 .12750 .87875
203 .62750 .00375 .88125
204 .62750 .13375 .75750
205 .76000 .00500 .75375
206 .75375 .13625 .87750
207 .87875 .00375 .87750
208 .88000 .12750 .75500
209 .00375 .25375 .75250
210 .00250 .37875 .87875
211 .13250 .26250 .87750
212 .13500 .37750 .75500
213 .25250 .25375 .75250
214 .25375 .37750 .87875
215 .37750 .25375 .88000
216 .38125 .38625 .75250
217 .51250 .25375 .75375
218 .50250 .38250 .88250
219 .62750 .25250 .87750
220 .62875 .37750 .76000
221 .75375 .25250 .76000
222 .75375 .38500 .87875
223 .87875 .25250 .87750
224 .87750 .37875 .75500
225 .00250 .50375 .75250
226 .00500 .63000 .88625
227 .12750 .50250 .87750
228 .12875 .62750 .75375
229 .25250 .50250 .75250
230 .25375 .62750 .87875
231 .37750 .50250 .88375
232 .37875 .62750 .76125
233 .50375 .50500 .75375
234 .50500 .62750 .88000
235 .62875 .50500 .88375
236 .63125 .62750 .75500
237 .75375 .50500 .75375
238 .75375 .62875 .87750
239 .87750 .51000 .88625
240 .87875 .62875 .75375
241 .00250 .76250 .75250
242 .00375 .87875 .87750
243 .13000 .75875 .88000
244 .12750 .88250 .75250
245 .25250 .76125 .76250
246 .25375 .87750 .87750
247 .37750 .75250 .87750
248 .38750 .87875 .75250
249 .50750 .75375 .75375
250 .50250 .87875 .87875
251 .62750 .75250 .87875
252 .62750 .88750 .75375
253 .75500 .75250 .75250
254 .75250 .88500 .87875
255 .88000 .75375 .87875
256 .88000 .87750 .75375
