ITEM: TIMESTEP
1529280
ITEM: NUMBER OF ATOMS
256
ITEM: BOX BOUNDS pp pp pp
0 8.0
0 8.0
0 8.0
ITEM: ATOMS id xs ys zs
2 .00875 .01000 .00375
1 .00375 .11500 .11625
4 .11500 .00250 .11625
3 .11500 .11500 .00375
6 .22875 .00375 .00500
5 .23000 .11500 .12500
8 .34000 .00375 .12375
7 .34000 .11500 .00750
9 .50250 .01250 .00250
10 .50375 .12750 .12750
11 .62750 .00250 .12750
12 .62750 .12750 .00375
13 .75375 .00250 .00375
14 .75250 .12750 .12875
15 .88000 .00500 .13000
16 .87875 .13750 .00375
18 .00500 .23125 .00250
17 .00750 .34000 .11500
20 .11500 .23125 .11500
19 .11625 .34875 .01125
22 .22875 .23000 .00375
21 .23000 .34000 .12250
24 .34125 .23000 .11625
23 .34000 .34125 .00375
25 .50375 .25500 .00250
26 .51125 .37750 .12750
27 .63000 .25250 .12750
28 .63000 .37750 .00250
29 .75500 .25375 .00500
30 .75375 .37750 .12875
31 .87875 .25250 .12875
32 .87875 .37750 .00250
33 .01250 .50875 .00250
34 .00375 .62750 .12750
35 .12875 .50375 .12750
36 .12750 .62875 .00625
37 .25250 .50750 .00875
38 .25625 .63250 .12875
39 .37750 .50375 .12875
40 .38125 .62875 .00500
41 .50250 .51000 .00250
42 .50250 .62750 .12750
43 .62875 .50500 .12750
44 .62875 .62750 .00500
45 .75250 .50500 .00375
46 .75375 .62875 .12875
47 .87875 .50500 .13375
48 .88000 .62750 .00250
49 .00250 .75375 .00625
50 .00500 .88750 .13375
51 .12875 .76000 .12750
52 .12875 .87875 .00500
53 .25250 .75250 .00375
54 .25500 .87875 .12875
55 .37750 .75250 .12875
56 .38375 .87875 .00500
57 .50375 .75875 .00875
58 .50250 .88125 .13000
59 .62750 .75250 .12875
60 .62750 .88500 .00250
61 .76000 .75250 .00750
62 .75250 .87875 .12875
63 .88000 .75250 .12875
64 .87875 .88000 .00250
66 .00375 .00375 .23000
65 .00250 .12375 .34000
68 .11750 .00500 .34000
67 .11500 .11500 .23375
70 .22750 .00375 .22750
69 .23250 .12000 .34000
72 .34000 .00250 .34125
71 .34750 .11625 .23000
73 .50250 .00750 .25250
74 .50375 .12875 .37750
75 .62875 .01000 .37875
76 .62875 .12750 .26000
77 .75500 .00375 .25625
78 .75250 .12875 .37875
79 .88250 .01250 .38250
80 .87875 .12875 .25375
82 .00375 .23500 .22750
81 .00250 .34000 .34125
84 .11875 .22875 .34000
83 .12125 .34125 .22875
86 .23625 .23625 .22750
85 .23750 .34250 .34250
88 .34125 .22750 .34000
87 .34750 .34125 .22750
89 .50250 .25625 .26000
90 .50375 .37875 .37875
91 .62750 .25250 .37750
92 .63125 .37750 .25500
93 .75375 .25500 .25375
94 .75250 .37750 .37750
95 .87875 .25375 .38625
96 .87875 .38375 .25250
97 .00500 .50375 .25250
98 .00500 .62875 .37875
99 .12750 .50625 .37875
100 .13000 .62875 .25875
101 .26250 .50250 .26125
102 .26000 .63375 .37875
103 .37750 .50250 .37750
104 .37875 .62750 .25875
105 .51250 .50500 .25250
106 .50375 .63000 .38000
107 .62875 .51000 .38500
108 .62875 .62750 .25250
109 .76250 .50375 .25375
110 .75375 .62875 .37875
111 .87750 .50625 .38750
112 .88000 .62875 .25250
113 .00750 .75250 .25500
114 .00250 .87875 .37875
115 .12750 .75875 .37875
116 .12875 .88625 .26125
117 .25250 .75500 .26000
118 .25750 .87875 .37875
119 .38625 .75250 .37750
120 .37875 .88000 .25250
121 .50375 .75500 .25375
122 .51250 .87750 .38750
123 .63375 .75375 .37875
124 .63000 .87875 .25375
125 .76250 .75500 .25250
126 .75250 .88000 .38000
127 .87875 .76250 .37750
128 .87750 .87875 .25750
129 .00375 .00375 .50500
130 .00250 .13000 .62875
131 .12750 .00375 .62750
132 .13375 .12750 .50375
133 .25250 .00250 .50250
134 .25375 .13375 .62750
135 .38750 .00875 .62875
136 .37875 .12750 .50625
137 .50250 .00250 .50500
138 .50250 .12875 .62750
139 .62875 .01250 .62875
140 .62750 .13375 .50625
141 .75375 .00375 .50375
142 .75250 .12875 .62875
143 .88625 .01250 .62875
144 .87875 .12875 .50375
145 .00250 .25250 .50375
146 .00500 .37875 .62750
147 .12750 .25250 .63625
148 .13125 .37750 .50375
149 .25375 .26125 .50250
150 .25375 .38750 .62875
151 .37750 .25375 .62750
152 .37750 .37750 .50250
153 .50250 .25375 .50250
154 .50375 .37875 .63250
155 .62875 .25375 .62875
156 .62750 .38375 .50625
157 .75375 .25375 .50250
158 .75375 .37750 .63125
159 .87750 .25375 .63625
160 .87875 .37875 .50375
161 .00500 .50250 .51000
162 .00500 .62875 .62750
163 .13625 .50375 .62750
164 .12750 .62750 .50375
165 .25375 .50375 .50375
166 .25375 .63250 .63250
167 .37750 .50250 .62875
168 .37875 .62875 .50250
169 .50250 .50250 .50375
170 .50375 .63000 .62750
171 .62750 .50500 .62875
172 .62875 .62750 .50250
173 .75750 .50375 .51125
174 .75250 .63750 .62750
175 .87875 .50375 .63000
176 .87750 .62875 .50250
177 .01000 .75250 .50250
178 .00250 .87750 .62750
179 .13000 .75250 .62750
180 .13000 .88750 .50375
181 .25250 .75625 .50250
182 .25375 .87750 .62750
183 .37750 .76000 .62875
184 .38250 .87750 .50250
185 .51125 .75375 .50375
186 .50375 .87750 .62875
187 .62875 .75250 .62875
188 .63750 .87875 .50375
189 .75375 .75375 .51250
190 .75250 .87750 .62875
191 .87875 .75250 .62875
192 .88500 .87875 .50375
193 .00500 .00250 .75250
194 .00250 .12875 .88500
195 .12875 .00500 .88625
196 .12750 .13750 .75500
197 .25250 .00250 .75500
198 .25250 .12750 .87875
199 .38375 .00250 .88000
200 .37750 .13125 .75250
201 .50375 .01125 .75375
202 .50625 .13250 .87875
203 .62750 .00250 .88250
204 .62750 .12875 .75375
205 .75250 .00250 .75625
206 .75500 .12875 .88625
207 .87750 .00250 .87750
208 .87750 .12875 .76250
209 .01125 .25250 .75375
210 .00250 .37750 .87750
211 .12750 .25250 .87750
212 .12875 .37875 .75500
213 .25375 .25250 .75250
214 .25250 .37750 .88125
215 .37750 .25250 .88625
216 .37750 .38250 .75250
217 .50500 .25375 .75375
218 .50250 .37875 .87750
219 .63250 .26000 .87750
220 .62875 .37875 .75750
221 .75375 .25250 .75500
222 .76125 .38250 .87750
223 .87875 .25500 .87750
224 .87875 .37875 .76000
225 .00375 .51250 .75250
226 .00375 .62750 .87875
227 .12875 .50250 .87875
228 .12750 .62875 .75250
229 .25375 .51250 .75250
230 .25250 .62750 .88000
231 .37875 .50375 .87875
232 .37750 .62750 .75375
233 .51000 .50500 .75875
234 .50375 .62750 .88250
235 .62875 .50250 .87875
236 .62875 .62875 .76000
237 .75375 .50250 .75250
238 .75375 .63125 .87750
239 .88250 .50375 .88250
240 .88000 .63000 .75250
241 .00375 .75375 .75375
242 .00875 .88125 .87750
243 .13375 .75375 .87750
244 .13500 .87750 .75375
245 .25875 .75375 .75250
246 .25500 .87875 .87750
247 .38000 .75875 .87750
248 .38625 .87875 .75375
249 .50875 .75375 .75250
250 .50250 .87875 .88750
251 .62875 .75250 .87875
252 .63750 .87750 .75250
253 .75250 .75375 .75250
254 .75250 .88750 .87750
255 .88750 .75375 .88750
256 .87875 .87875 .76250
