ITEM: TIMESTEP
1528420
ITEM: NUMBER OF ATOMS
256
ITEM: BOX BOUNDS pp pp pp
0 8.0
0 8.0
0 8.0
ITEM: ATOMS id xs ys zs
1 .00375 .00625 .00250
2 .00500 .11750 .11500
3 .11500 .00875 .11625
4 .11750 .11500 .00375
5 .22750 .00250 .00250
6 .23500 .11500 .11500
7 .34250 .00500 .11625
8 .34125 .11500 .00375
9 .51125 .00250 .00375
10 .50625 .12875 .12750
11 .63250 .00375 .12875
12 .62875 .12875 .00375
13 .75375 .00500 .00250
14 .76125 .13125 .13375
15 .87875 .00375 .13750
16 .87750 .13125 .00375
17 .00375 .23250 .00250
18 .00375 .34000 .11750
19 .11625 .23125 .11500
20 .11500 .34000 .00875
21 .23125 .23500 .00375
22 .22875 .34250 .11875
23 .34125 .22750 .12000
24 .34125 .34000 .00375
25 .50250 .26125 .00375
26 .50375 .37875 .13000
27 .62750 .25375 .12750
28 .62750 .37875 .00500
29 .75375 .25500 .01125
30 .75500 .37750 .12875
31 .87750 .25875 .12750
32 .87875 .37875 .00250
33 .00500 .50250 .00500
34 .00375 .62750 .12875
35 .12875 .51000 .13750
36 .13625 .63625 .00625
37 .25375 .50250 .00375
38 .26125 .62750 .12875
39 .37875 .50250 .12750
40 .38500 .63000 .00375
41 .50375 .50375 .00250
42 .50250 .63375 .12750
43 .62750 .50375 .12875
44 .63625 .62875 .00375
45 .75250 .50250 .00375
46 .75250 .62750 .12750
47 .88250 .50625 .12875
48 .87750 .62750 .00375
49 .00500 .75750 .01000
50 .00375 .88625 .13500
51 .12875 .75500 .12875
52 .13375 .87875 .00625
53 .25500 .75375 .00250
54 .25500 .88125 .13125
55 .37875 .75250 .12875
56 .38000 .88750 .00250
57 .50875 .75500 .00250
58 .50500 .87750 .12875
59 .62875 .75500 .13000
60 .62875 .88500 .01250
61 .75250 .75500 .00250
62 .75250 .87875 .12750
63 .87750 .75750 .12875
64 .88000 .87875 .00375
65 .00375 .00250 .22750
66 .01125 .11500 .34875
67 .11500 .00375 .34125
68 .11625 .11875 .23000
69 .22875 .00375 .22875
70 .23125 .11500 .34000
71 .34125 .00375 .34250
72 .34000 .11750 .22750
73 .50250 .00250 .25375
74 .50375 .12875 .37750
75 .62875 .00375 .37750
76 .63750 .12750 .25250
77 .75375 .00375 .25375
78 .75250 .13000 .38625
79 .87875 .00500 .38000
80 .87875 .12750 .25375
81 .01125 .22875 .23250
82 .00250 .34250 .34625
83 .11500 .23250 .34125
84 .11500 .35000 .22750
85 .23750 .22750 .22750
86 .22750 .34125 .34125
87 .34125 .23750 .34250
88 .34625 .34125 .22875
89 .50500 .25375 .25250
90 .50250 .37750 .37875
91 .62875 .25250 .37875
92 .63500 .38375 .26125
93 .75500 .25500 .25250
94 .75375 .37750 .38750
95 .87875 .25250 .37750
96 .87750 .37875 .25250
97 .00375 .50250 .25375
98 .00375 .62750 .38625
99 .12875 .50250 .37750
100 .12750 .63000 .25250
101 .25375 .50250 .25375
102 .25375 .63750 .37750
103 .38000 .50250 .37750
104 .37750 .62750 .25375
105 .50875 .50250 .25500
106 .51125 .62750 .37750
107 .63000 .50375 .38125
108 .62875 .63750 .25375
109 .75500 .50250 .25500
110 .75250 .62750 .37875
111 .88625 .50500 .38500
112 .87875 .62750 .26250
113 .00375 .75375 .25250
114 .00375 .87750 .37750
115 .12750 .75250 .37875
116 .12750 .88625 .25375
117 .25500 .75250 .25875
118 .25500 .87750 .37875
119 .37875 .76125 .37875
120 .38000 .87875 .25250
121 .50375 .75375 .26125
122 .50625 .88000 .37750
123 .63000 .75250 .37750
124 .62875 .88625 .25500
125 .75500 .75250 .25500
126 .75875 .88125 .37750
127 .87875 .75750 .37875
128 .87750 .87875 .25375
129 .00500 .00875 .50375
130 .00250 .13375 .63000
131 .12750 .00250 .62875
132 .13375 .13125 .50375
133 .25250 .00500 .50375
134 .25375 .12750 .63125
135 .37875 .00500 .62875
136 .37750 .13000 .50375
137 .50375 .00250 .51000
138 .51250 .12750 .62750
139 .62750 .00250 .63125
140 .62875 .12750 .50250
141 .75250 .00875 .50375
142 .75500 .13375 .62750
143 .88000 .00875 .62875
144 .88375 .13625 .50250
145 .00250 .25375 .50375
146 .00375 .38000 .62875
147 .13625 .26000 .62875
148 .12750 .38125 .50375
149 .25250 .25750 .50250
150 .25250 .38000 .62875
151 .38000 .25375 .62750
152 .38125 .38000 .50250
153 .50250 .25875 .50375
154 .50250 .37875 .62750
155 .62875 .25375 .62750
156 .62750 .38000 .50375
157 .75250 .25500 .51000
158 .75375 .37875 .62875
159 .87875 .26250 .62750
160 .87750 .37875 .50375
161 .00250 .50250 .50375
162 .00750 .62750 .62750
163 .12875 .50625 .62750
164 .12750 .62875 .50375
165 .25375 .50750 .50750
166 .25375 .62875 .63375
167 .37875 .50875 .62750
168 .37875 .62750 .50375
169 .50250 .50250 .50250
170 .50250 .62750 .63125
171 .63375 .50500 .62875
172 .62875 .62875 .51250
173 .75375 .50375 .50375
174 .75375 .63000 .62875
175 .87750 .50250 .62875
176 .87750 .63375 .50375
177 .00375 .75375 .50375
178 .00500 .88000 .62750
179 .12875 .75375 .62875
180 .12875 .87875 .50375
181 .25250 .75250 .50375
182 .25375 .87875 .62750
183 .38625 .75375 .62750
184 .37750 .87875 .50250
185 .51250 .75250 .50375
186 .50375 .87875 .62875
187 .62875 .75250 .63000
188 .62750 .87875 .50375
189 .75250 .75625 .50375
190 .75375 .87875 .63750
191 .88750 .75250 .62875
192 .87875 .87875 .50375
193 .00250 .00250 .75375
194 .00625 .12750 .87875
195 .12875 .00250 .87750
196 .12750 .12750 .75875
197 .26000 .00250 .75250
198 .25375 .12750 .87750
199 .37750 .00375 .87875
200 .37750 .13000 .75250
201 .50375 .00250 .75375
202 .50250 .12875 .87750
203 .62750 .00250 .88000
204 .63000 .12750 .75250
205 .75500 .00250 .75250
206 .76000 .13125 .88750
207 .87875 .00375 .88125
208 .87750 .12875 .75375
209 .00375 .26000 .75250
210 .00375 .38625 .88000
211 .12750 .25375 .87875
212 .12875 .37875 .75250
213 .25375 .25625 .75250
214 .25375 .38625 .88750
215 .38000 .25375 .88625
216 .38250 .37750 .75375
217 .50250 .25375 .75375
218 .51125 .37875 .88250
219 .63750 .25375 .88125
220 .62875 .38250 .75500
221 .75375 .25375 .75625
222 .75250 .37750 .87750
223 .87750 .25875 .87750
224 .88250 .37875 .75250
225 .00250 .50375 .76250
226 .00250 .63000 .88375
227 .12875 .50250 .87750
228 .12750 .62750 .75250
229 .25250 .51250 .76250
230 .25250 .62750 .87875
231 .37875 .50250 .88500
232 .38125 .62875 .75375
233 .50375 .50375 .75250
234 .50250 .62875 .87750
235 .63000 .50375 .87750
236 .63000 .62875 .75250
237 .75250 .50375 .75375
238 .75375 .63625 .87750
239 .88000 .51000 .88000
240 .87750 .62875 .75250
241 .00500 .75375 .75250
242 .00375 .87750 .87750
243 .13000 .75250 .87875
244 .12875 .88000 .75375
245 .25375 .75625 .75250
246 .25625 .88000 .87875
247 .37750 .75375 .87875
248 .38500 .87750 .75375
249 .50250 .75250 .75250
250 .50250 .88375 .88500
251 .62875 .75250 .87750
252 .63000 .87750 .75500
253 .75500 .75375 .75250
254 .75375 .87875 .87750
255 .88625 .76125 .88500
256 .88625 .87875 .75500
