ITEM: TIMESTEP
1528560
ITEM: NUMBER OF ATOMS
256
ITEM: BOX BOUNDS pp pp pp
0 8.0
0 8.0
0 8.0
ITEM: ATOMS id xs ys zs
1 .00375 .00500 .00375
2 .00250 .11500 .12250
3 .11750 .00875 .11500
4 .12250 .11875 .00375
5 .23250 .00375 .00250
6 .22875 .11500 .11500
7 .34125 .00500 .11500
8 .34125 .12250 .00375
9 .50250 .00375 .00250
10 .50250 .12750 .12750
11 .62750 .00375 .12875
12 .62875 .12875 .00375
13 .75500 .00250 .00375
14 .75500 .12750 .12875
15 .87750 .00375 .13000
16 .87875 .13000 .00375
17 .00375 .22750 .00250
18 .00375 .35000 .11500
19 .11750 .22750 .11625
20 .11875 .34500 .00375
21 .22875 .23000 .00375
22 .22875 .34000 .11625
23 .34000 .23000 .11500
24 .34125 .34125 .00375
25 .50500 .25375 .01250
26 .50250 .37875 .13000
27 .62875 .25250 .12750
28 .62875 .38625 .00375
29 .75750 .25250 .00250
30 .75375 .37750 .12875
31 .87750 .25500 .12875
32 .87750 .38000 .00250
33 .00375 .51250 .01000
34 .00750 .63000 .12750
35 .12750 .50375 .12750
36 .12750 .62875 .00250
37 .26125 .51250 .01250
38 .25250 .63500 .12875
39 .38125 .50250 .12875
40 .38625 .62750 .00375
41 .50250 .50375 .00250
42 .50250 .62750 .12875
43 .63000 .50875 .13125
44 .62875 .63125 .01000
45 .75250 .50250 .00500
46 .75250 .62750 .13250
47 .87750 .50375 .13375
48 .88625 .62750 .00250
49 .00375 .75250 .00250
50 .00625 .87750 .13750
51 .12875 .75250 .12875
52 .13750 .87875 .00375
53 .25250 .75375 .00375
54 .25750 .87750 .12875
55 .37875 .75500 .13500
56 .38750 .87875 .00500
57 .50250 .75375 .01000
58 .50375 .87875 .13000
59 .62875 .75375 .12750
60 .62875 .87875 .00250
61 .76250 .75875 .01250
62 .76125 .87875 .12750
63 .88250 .75500 .12750
64 .88000 .87875 .00375
65 .00250 .00250 .22750
66 .00250 .11625 .34250
67 .11625 .00625 .34250
68 .11625 .11500 .23125
69 .23000 .00375 .22875
70 .22875 .11500 .34625
71 .34000 .00250 .34000
72 .34125 .12250 .22875
73 .51000 .00250 .25250
74 .50625 .13625 .38375
75 .62875 .00250 .37750
76 .63125 .12875 .25500
77 .76000 .00250 .25250
78 .75625 .12875 .37750
79 .88000 .00250 .37750
80 .87750 .12875 .25250
81 .00250 .22750 .23000
82 .00250 .34250 .34125
83 .11500 .23000 .34875
84 .11625 .34625 .22875
85 .22750 .22750 .23250
86 .23000 .34000 .34500
87 .34000 .22875 .34750
88 .35000 .34000 .22750
89 .50250 .25500 .25500
90 .50250 .37875 .37750
91 .63000 .25250 .38000
92 .62750 .37875 .25625
93 .75500 .25250 .26250
94 .75375 .37875 .37875
95 .87875 .25250 .38375
96 .87875 .37750 .25250
97 .00375 .51000 .25250
98 .00500 .63375 .37875
99 .12875 .50375 .38000
100 .13000 .63500 .25250
101 .25375 .50625 .25500
102 .25750 .62875 .37750
103 .37875 .50875 .38375
104 .37875 .63750 .25500
105 .51250 .50375 .26125
106 .50375 .63375 .38375
107 .63250 .50250 .37875
108 .63625 .62875 .25375
109 .75375 .50375 .25250
110 .75250 .63000 .37750
111 .87875 .51125 .38625
112 .87750 .62750 .25375
113 .00250 .75375 .25375
114 .00500 .88000 .37875
115 .12750 .76250 .37875
116 .12875 .87875 .25250
117 .25375 .75250 .26000
118 .25250 .88000 .38750
119 .38750 .75375 .37875
120 .38000 .88000 .25250
121 .50375 .75250 .25375
122 .50250 .88000 .38250
123 .62875 .75375 .38625
124 .62875 .87750 .25250
125 .75250 .75250 .25250
126 .75375 .88000 .38000
127 .88000 .75375 .37750
128 .87875 .88125 .25375
129 .00375 .00250 .51000
130 .00375 .12750 .62750
131 .12750 .00375 .63125
132 .12750 .13750 .50250
133 .25375 .00250 .50250
134 .25750 .13625 .62875
135 .37875 .00250 .62875
136 .37750 .12875 .50250
137 .50250 .00250 .50500
138 .50375 .12750 .62875
139 .63750 .00250 .62750
140 .63250 .12750 .50625
141 .75250 .00250 .50250
142 .76125 .12875 .62750
143 .88125 .00750 .63375
144 .87750 .12750 .50250
145 .00375 .25250 .50375
146 .00250 .37750 .62875
147 .12875 .25500 .62750
148 .13500 .38000 .51000
149 .25375 .26125 .50250
150 .25250 .37750 .63000
151 .38000 .25500 .63125
152 .37875 .38500 .50250
153 .50750 .25250 .50250
154 .50500 .37750 .62875
155 .62875 .25375 .63375
156 .62750 .38625 .50250
157 .75250 .25250 .50375
158 .75375 .37750 .63125
159 .87750 .25500 .62750
160 .87750 .38125 .50250
161 .00875 .50750 .50375
162 .00375 .63000 .63000
163 .13000 .50250 .62750
164 .13000 .63750 .50375
165 .25250 .50375 .50500
166 .26250 .62875 .63000
167 .37875 .50625 .63000
168 .37750 .63000 .50750
169 .50375 .50375 .50250
170 .50375 .62875 .62875
171 .62875 .50375 .62875
172 .62750 .62875 .50875
173 .75250 .50250 .50250
174 .75375 .62875 .62750
175 .87875 .50375 .63000
176 .87750 .62750 .50375
177 .00500 .75500 .50250
178 .00375 .87750 .62875
179 .12875 .75250 .63500
180 .12750 .88125 .50375
181 .25250 .75250 .50375
182 .25500 .87875 .62875
183 .37875 .75500 .62875
184 .37875 .87875 .51250
185 .50750 .75375 .50875
186 .50375 .88000 .62875
187 .62875 .75250 .62750
188 .62750 .88000 .50625
189 .75875 .75250 .50250
190 .75250 .88000 .63000
191 .88625 .75500 .62875
192 .87750 .87875 .50375
193 .00625 .00375 .75375
194 .00375 .12875 .87875
195 .13625 .00375 .88000
196 .12875 .12875 .75375
197 .25500 .00375 .76000
198 .25500 .12875 .87875
199 .37750 .00250 .87750
200 .37875 .13000 .75250
201 .50250 .00375 .75875
202 .50375 .12750 .87750
203 .62875 .00250 .87750
204 .63000 .12750 .75375
205 .75375 .00250 .75375
206 .75250 .13250 .87875
207 .87875 .01125 .87875
208 .87875 .13125 .75250
209 .00375 .25625 .75250
210 .00250 .38125 .88000
211 .12875 .25250 .87875
212 .13000 .37750 .75750
213 .25375 .25625 .75625
214 .25875 .37875 .87750
215 .37750 .25250 .88625
216 .37750 .37750 .75500
217 .50250 .25250 .75250
218 .50250 .38375 .87875
219 .62750 .25375 .87875
220 .62875 .38000 .75375
221 .75375 .25375 .75375
222 .75375 .37750 .87875
223 .87750 .25250 .87750
224 .87750 .38000 .75500
225 .00250 .50250 .75250
226 .00250 .62875 .88375
227 .12875 .50500 .88500
228 .12750 .63750 .75750
229 .25875 .50250 .75750
230 .25500 .62750 .87750
231 .37875 .50500 .87875
232 .37750 .62750 .75375
233 .50500 .50375 .75625
234 .50500 .63500 .87750
235 .63500 .50375 .88000
236 .63750 .62750 .75375
237 .75250 .50375 .75500
238 .75250 .62750 .87875
239 .87750 .50500 .87875
240 .87750 .62875 .75250
241 .01125 .75375 .75375
242 .00500 .87875 .87750
243 .13625 .75375 .88000
244 .12750 .87750 .75250
245 .25375 .75250 .75250
246 .25250 .87875 .87875
247 .37750 .75375 .88000
248 .38000 .87875 .75375
249 .50250 .75250 .75375
250 .50250 .88625 .87875
251 .63000 .75375 .87750
252 .62875 .87875 .75250
253 .75375 .75875 .75250
254 .75250 .88000 .88000
255 .88000 .75250 .87875
256 .88375 .87750 .75500
