ITEM: TIMESTEP
1528860
ITEM: NUMBER OF ATOMS
256
ITEM: BOX BOUNDS pp pp pp
0 8.0
0 8.0
0 8.0
ITEM: ATOMS id xs ys zs
1 .00375 .00750 .00375
2 .00250 .11500 .11500
3 .12375 .00875 .11500
4 .11625 .11625 .00375
5 .22750 .00250 .00375
6 .22875 .12500 .11625
7 .34125 .00500 .11500
8 .34125 .11500 .00250
9 .50750 .00250 .00500
10 .50375 .12750 .13625
11 .62750 .00250 .13000
12 .62875 .12875 .00375
13 .75250 .00250 .00375
14 .75750 .12875 .12750
15 .87750 .00375 .12750
16 .87750 .13000 .00250
17 .00250 .22750 .00375
18 .01000 .34875 .11625
19 .12000 .23125 .11625
20 .11875 .34750 .00375
21 .22750 .23000 .00375
22 .22750 .34125 .11500
23 .34000 .22750 .11875
24 .34000 .34000 .00250
25 .50375 .26250 .00750
26 .50250 .37750 .12875
27 .62875 .25375 .13000
28 .62750 .37750 .00875
29 .75250 .25500 .00500
30 .76125 .38750 .12750
31 .88375 .25375 .12750
32 .87750 .38750 .00500
33 .00875 .50250 .00500
34 .00500 .62750 .13250
35 .12750 .50500 .13000
36 .13250 .62750 .00375
37 .25625 .50500 .00750
38 .26000 .62750 .12875
39 .38500 .50375 .12875
40 .38000 .62750 .00375
41 .50250 .50500 .01250
42 .50375 .62875 .12750
43 .62750 .50375 .12875
44 .62875 .62875 .00500
45 .75250 .50375 .00250
46 .75375 .62875 .12750
47 .88375 .51125 .13000
48 .87750 .62750 .01000
49 .00750 .75875 .00375
50 .00250 .87875 .12750
51 .13500 .75375 .12875
52 .12875 .88000 .00250
53 .25500 .75375 .00250
54 .25875 .87875 .13125
55 .37750 .75500 .13625
56 .37750 .87875 .00250
57 .50750 .75500 .00500
58 .50250 .87875 .12875
59 .63750 .75500 .13625
60 .63000 .87875 .00250
61 .75375 .75250 .00250
62 .75500 .88250 .13750
63 .87750 .75250 .12750
64 .87875 .87750 .00375
65 .00250 .01000 .23000
66 .00375 .11625 .34750
67 .12500 .00250 .34000
68 .11875 .11500 .22875
69 .22750 .00500 .22750
70 .22875 .12375 .34125
71 .34125 .00250 .34125
72 .34750 .12125 .22875
73 .50875 .00500 .25375
74 .51000 .12875 .37875
75 .63250 .01000 .37875
76 .63000 .12875 .25875
77 .75250 .00250 .25375
78 .76250 .13500 .37875
79 .88000 .00375 .38000
80 .87875 .12875 .25250
81 .01000 .22875 .22750
82 .00250 .34125 .34125
83 .11625 .22750 .34125
84 .11500 .34125 .23750
85 .22750 .22875 .23500
86 .22875 .34125 .34125
87 .34000 .22750 .34250
88 .34125 .34125 .22875
89 .50250 .25500 .26000
90 .50500 .37875 .37750
91 .62750 .25250 .37875
92 .62750 .37750 .25375
93 .75750 .25500 .25250
94 .75750 .38250 .38750
95 .87750 .25875 .38125
96 .88000 .37750 .25375
97 .00375 .50500 .25625
98 .00250 .63000 .37875
99 .12750 .50500 .37750
100 .13750 .62750 .25875
101 .25250 .50500 .25250
102 .25375 .63000 .37875
103 .37750 .50250 .37750
104 .38000 .62750 .25250
105 .50500 .50875 .25500
106 .51000 .62750 .37875
107 .62875 .50750 .37750
108 .62750 .63000 .25250
109 .75250 .50500 .25375
110 .75250 .62750 .37750
111 .88500 .50250 .38000
112 .87750 .63250 .25500
113 .00250 .75625 .26125
114 .00875 .87750 .38625
115 .12750 .75375 .37750
116 .12750 .88000 .26250
117 .25375 .75750 .26250
118 .25375 .87875 .37875
119 .37750 .75250 .37875
120 .38375 .87750 .25250
121 .50250 .75500 .25625
122 .51250 .87750 .37750
123 .62875 .75375 .37750
124 .62875 .87750 .25250
125 .75250 .75375 .25250
126 .75500 .87875 .37875
127 .87875 .76000 .38625
128 .88625 .87875 .25375
129 .00375 .00625 .50500
130 .01125 .12750 .62750
131 .12750 .01125 .62750
132 .13750 .13625 .50875
133 .25375 .00250 .50375
134 .25375 .12875 .62750
135 .37750 .00375 .63625
136 .37875 .12750 .50250
137 .50375 .00375 .50375
138 .50250 .12750 .62750
139 .63250 .00500 .62750
140 .62750 .12750 .50250
141 .75250 .00250 .50500
142 .75375 .13000 .62750
143 .87875 .00375 .62750
144 .87750 .12750 .50250
145 .00375 .25500 .50375
146 .00875 .38375 .62750
147 .12875 .25875 .62875
148 .12750 .38000 .50250
149 .25250 .25625 .50250
150 .25375 .38000 .63250
151 .37875 .25250 .62750
152 .37875 .37750 .50625
153 .50375 .25375 .50250
154 .50500 .37875 .63125
155 .62875 .25375 .62875
156 .62750 .37750 .50375
157 .75250 .25625 .51000
158 .75250 .38000 .63500
159 .87750 .25375 .62875
160 .87875 .38250 .50375
161 .00375 .51000 .50500
162 .00500 .62875 .62875
163 .13750 .50375 .63625
164 .12875 .62875 .50875
165 .26125 .50250 .50250
166 .25375 .62875 .63750
167 .37750 .50875 .62750
168 .38000 .63000 .50250
169 .50250 .50375 .50375
170 .50250 .63250 .62750
171 .62750 .51125 .62750
172 .62750 .63750 .50625
173 .75500 .50375 .50375
174 .75625 .63500 .62750
175 .87750 .51250 .63750
176 .87750 .62750 .50500
177 .00250 .75250 .50375
178 .00375 .87750 .62750
179 .13000 .75875 .63375
180 .12750 .87875 .50875
181 .25875 .75375 .50375
182 .25875 .88000 .62875
183 .38000 .75375 .62750
184 .37875 .88250 .50875
185 .50250 .76000 .51125
186 .50250 .87750 .62750
187 .62750 .75375 .62875
188 .63750 .88000 .50875
189 .75250 .75250 .50250
190 .75375 .87750 .63000
191 .87875 .75750 .62750
192 .87875 .87750 .50375
193 .00875 .00750 .75500
194 .01125 .13000 .87750
195 .12750 .00375 .87750
196 .12875 .12875 .75375
197 .25250 .00250 .75375
198 .25500 .12750 .88625
199 .38625 .00375 .88500
200 .37750 .13125 .75250
201 .50375 .00375 .75375
202 .50375 .13750 .87750
203 .63375 .01250 .87750
204 .62875 .12750 .75250
205 .75750 .00500 .75250
206 .75250 .13000 .87875
207 .87750 .00250 .87750
208 .87750 .12875 .76250
209 .00375 .25250 .75375
210 .00375 .38125 .87875
211 .12875 .25250 .87750
212 .13125 .38750 .75250
213 .25250 .25375 .75375
214 .25500 .37750 .87875
215 .37875 .25375 .87750
216 .38000 .38750 .76000
217 .50750 .25500 .75500
218 .50375 .37875 .88250
219 .63750 .25500 .88750
220 .63625 .37750 .76125
221 .75250 .25250 .75375
222 .75375 .37875 .87750
223 .87750 .25375 .88000
224 .87875 .37750 .75375
225 .00375 .50500 .75625
226 .00250 .62875 .87750
227 .12750 .50375 .87750
228 .12750 .62750 .75250
229 .26125 .50375 .75250
230 .25250 .63500 .88125
231 .37875 .50375 .88750
232 .37750 .62750 .75875
233 .50500 .50375 .75500
234 .50375 .62875 .87875
235 .63000 .51000 .88625
236 .63500 .62875 .76250
237 .75250 .50375 .75250
238 .76125 .62750 .87875
239 .87750 .50375 .87875
240 .88000 .62875 .75250
241 .00250 .75250 .75750
242 .00375 .87875 .87875
243 .12875 .75500 .87875
244 .13625 .87750 .75500
245 .25250 .75375 .75250
246 .26000 .87875 .87875
247 .38000 .75250 .87875
248 .38500 .88375 .76250
249 .50375 .76125 .75500
250 .50500 .87750 .87750
251 .62750 .75375 .88000
252 .62875 .87875 .75250
253 .75250 .75250 .75250
254 .75250 .87750 .87875
255 .87750 .75500 .87875
256 .87750 .87750 .75375
