ITEM: TIMESTEP
1530100
ITEM: NUMBER OF ATOMS
256
ITEM: BOX BOUNDS pp pp pp
0 8.0
0 8.0
0 8.0
ITEM: ATOMS id xs ys zs
2 .00250 .00250 .00250
1 .01125 .11750 .11625
4 .11625 .00500 .12250
3 .12000 .11750 .01250
6 .22750 .00375 .00375
5 .23500 .11500 .11500
8 .35000 .00875 .11500
7 .34125 .12375 .01000
9 .50375 .00625 .00500
10 .50500 .12750 .12875
11 .63000 .00375 .12750
12 .63250 .13000 .00500
13 .75375 .00875 .00250
14 .75500 .12750 .12750
15 .88000 .00375 .13000
16 .88000 .12875 .00500
18 .00250 .22750 .00375
17 .01250 .34125 .11625
20 .11625 .22750 .11625
19 .11500 .34000 .00375
22 .22875 .23000 .00500
21 .22750 .34125 .11500
24 .34000 .22750 .11750
23 .34000 .34000 .00375
25 .50625 .25375 .00250
26 .50625 .37750 .13250
27 .62875 .25250 .12750
28 .62875 .37750 .00875
29 .75375 .25375 .00375
30 .75250 .37750 .13000
31 .87750 .25250 .12750
32 .87750 .37875 .00250
33 .00375 .50375 .00500
34 .00250 .62875 .12875
35 .13500 .50375 .12750
36 .12750 .62875 .00375
37 .25500 .50250 .00500
38 .25250 .63125 .13750
39 .38000 .50375 .12750
40 .37875 .63750 .00375
41 .50500 .51250 .00375
42 .50375 .63625 .12875
43 .62750 .50250 .12875
44 .62875 .62750 .00375
45 .76125 .50250 .01000
46 .75875 .63000 .13000
47 .88000 .50375 .12750
48 .87750 .62750 .00500
49 .00375 .75375 .00250
50 .00500 .87750 .12875
51 .12750 .75250 .12875
52 .12875 .87750 .00250
53 .25375 .75250 .00250
54 .26125 .87750 .12875
55 .38375 .75250 .12875
56 .37875 .88125 .00875
57 .50375 .75375 .00250
58 .50250 .87750 .13750
59 .63375 .76000 .13125
60 .62875 .87875 .00500
61 .75250 .75375 .00250
62 .75375 .88625 .12875
63 .88250 .75625 .13750
64 .87875 .87875 .00500
66 .00500 .00375 .22875
65 .00250 .11500 .34125
68 .11875 .00250 .35000
67 .11750 .12375 .22875
70 .22750 .00500 .22750
69 .23375 .11625 .34000
72 .34500 .00375 .34125
71 .34250 .11500 .22750
73 .50250 .00250 .25250
74 .50500 .13125 .37875
75 .62750 .00250 .37750
76 .62875 .12750 .25875
77 .75250 .00250 .25250
78 .75375 .12750 .38125
79 .87750 .00375 .37750
80 .87750 .12750 .25250
82 .00750 .22875 .23250
81 .00875 .34250 .34125
84 .11625 .23000 .34000
83 .11500 .34000 .23125
86 .23750 .22875 .22750
85 .22875 .34375 .34125
88 .34000 .22750 .34000
87 .34000 .34125 .22750
89 .50375 .25375 .25500
90 .50250 .37750 .38000
91 .63000 .25250 .38000
92 .63750 .37875 .26250
93 .75375 .26125 .25250
94 .75500 .37750 .37875
95 .87750 .25250 .37750
96 .87875 .37875 .25250
97 .01250 .50250 .25500
98 .00625 .63250 .38000
99 .12875 .50250 .37875
100 .12750 .62875 .25250
101 .25250 .51250 .25375
102 .25500 .62875 .37750
103 .38250 .50250 .38500
104 .37875 .62875 .25375
105 .50375 .50375 .25500
106 .50875 .62875 .37750
107 .62875 .50375 .37750
108 .62875 .63250 .25375
109 .75250 .50250 .25375
110 .75375 .62875 .38750
111 .88000 .50375 .38000
112 .88000 .63750 .25250
113 .00875 .75375 .25250
114 .00250 .87750 .37875
115 .12875 .76125 .37875
116 .12750 .87875 .25250
117 .25250 .75250 .25250
118 .25500 .87750 .37875
119 .37875 .75250 .37750
120 .38500 .87875 .25375
121 .50625 .75250 .26125
122 .50500 .87875 .38625
123 .63625 .75750 .38000
124 .63000 .87875 .25500
125 .75250 .75250 .25875
126 .75250 .87750 .37750
127 .87875 .75375 .38625
128 .88375 .87750 .25875
129 .00375 .00500 .50625
130 .00500 .12875 .62875
131 .13625 .01125 .62750
132 .12875 .13375 .50250
133 .25375 .00500 .50375
134 .25500 .12875 .62750
135 .38000 .00375 .63500
136 .38000 .12875 .50375
137 .50250 .00250 .50250
138 .50375 .12750 .62875
139 .63000 .00250 .63000
140 .62875 .12875 .50250
141 .75750 .01125 .51250
142 .75250 .12750 .62875
143 .88750 .00375 .62750
144 .87750 .12750 .50375
145 .00375 .25375 .50375
146 .00250 .37875 .62875
147 .12875 .25500 .62875
148 .13250 .37875 .51250
149 .25250 .25250 .50250
150 .25375 .37875 .62750
151 .38125 .25250 .62750
152 .38375 .38500 .51250
153 .50625 .25375 .50250
154 .50375 .37750 .62750
155 .62875 .25375 .62875
156 .62750 .37750 .50250
157 .75500 .26125 .50250
158 .75500 .37750 .62750
159 .87750 .25375 .62875
160 .87875 .38250 .50375
161 .00250 .50250 .51125
162 .00250 .62875 .62875
163 .13750 .50375 .62875
164 .12750 .62750 .50250
165 .26250 .50250 .50250
166 .25375 .62875 .62875
167 .38250 .51000 .62875
168 .37750 .62875 .50750
169 .50750 .50250 .50250
170 .50500 .63625 .62750
171 .63250 .50375 .63250
172 .62875 .63000 .50250
173 .75375 .50375 .51125
174 .75375 .63000 .62750
175 .87875 .51000 .62875
176 .87875 .63000 .50375
177 .00375 .75250 .50875
178 .00250 .88000 .62875
179 .12875 .75375 .62875
180 .13625 .87875 .50375
181 .25375 .75625 .50250
182 .26125 .87875 .63000
183 .37875 .75250 .62875
184 .37875 .87875 .50375
185 .50250 .75250 .50250
186 .50500 .87750 .62875
187 .62750 .75250 .62750
188 .63375 .88000 .50250
189 .76125 .75625 .50250
190 .75375 .88000 .63625
191 .88000 .75250 .62875
192 .88000 .87750 .51000
193 .00250 .01000 .76125
194 .00250 .12875 .87875
195 .12875 .01125 .88125
196 .13125 .12875 .75500
197 .26250 .00375 .75375
198 .25250 .12875 .88000
199 .37875 .00375 .87875
200 .37875 .12875 .75250
201 .50625 .00375 .75500
202 .51125 .13000 .88000
203 .62875 .00375 .88375
204 .62875 .12875 .75625
205 .75375 .01000 .75250
206 .75375 .12875 .88125
207 .88000 .00375 .88000
208 .87875 .12750 .75250
209 .01000 .25250 .75250
210 .01000 .37750 .87750
211 .13750 .25250 .87875
212 .12875 .37875 .75375
213 .25250 .25625 .76250
214 .25375 .37875 .87750
215 .37750 .25375 .87750
216 .37750 .37750 .75375
217 .50375 .25500 .75250
218 .50375 .37750 .87750
219 .62750 .25250 .88000
220 .63000 .37750 .75500
221 .75250 .25250 .75250
222 .75250 .38625 .87875
223 .88500 .25250 .88375
224 .87750 .38125 .75500
225 .01125 .50375 .75250
226 .01000 .62750 .88000
227 .12750 .50375 .87875
228 .12750 .63000 .75250
229 .25375 .50375 .76000
230 .25250 .63750 .87875
231 .37875 .50750 .87750
232 .37750 .63000 .75500
233 .50625 .50375 .75250
234 .50375 .62750 .87750
235 .63375 .50500 .87875
236 .62750 .62875 .75250
237 .75375 .50375 .76125
238 .75375 .63000 .87875
239 .87875 .50375 .87875
240 .88250 .62875 .75500
241 .00625 .75250 .75250
242 .00375 .87750 .87875
243 .12750 .76125 .87750
244 .13000 .88000 .75250
245 .25250 .75375 .75375
246 .25500 .87875 .87875
247 .37750 .75375 .87875
248 .37750 .87750 .75250
249 .50750 .76125 .75250
250 .50375 .87750 .88250
251 .62875 .75375 .88375
252 .62750 .87875 .75375
253 .75250 .75375 .75375
254 .75250 .87750 .87875
255 .88125 .76250 .87750
256 .88125 .87875 .75250
