ITEM: TIMESTEP
1528760
ITEM: NUMBER OF ATOMS
256
ITEM: BOX BOUNDS pp pp pp
0 8.0
0 8.0
0 8.0
ITEM: ATOMS id xs ys zs
1 .00375 .00375 .00500
2 .00250 .11625 .11625
3 .12250 .00375 .11625
4 .11500 .11500 .00250
5 .23500 .00250 .00750
6 .22750 .11500 .11625
7 .34375 .00250 .12500
8 .34375 .11750 .00500
9 .50250 .00250 .00250
10 .51125 .13000 .13625
11 .62750 .00375 .12875
12 .62875 .12750 .00375
13 .75375 .00250 .00250
14 .75500 .13125 .12875
15 .88750 .00375 .12875
16 .87875 .12750 .00250
17 .00375 .22875 .00250
18 .00375 .34125 .12375
19 .11500 .22875 .11500
20 .11750 .34000 .00625
21 .22875 .22875 .00250
22 .23500 .34125 .11500
23 .34000 .22750 .12500
24 .35000 .34000 .00375
25 .50250 .25250 .00250
26 .50250 .37875 .12875
27 .62750 .25500 .13125
28 .62750 .37750 .00375
29 .76250 .25625 .00250
30 .75250 .37875 .13000
31 .87875 .25250 .12750
32 .87750 .37750 .00625
33 .00500 .51250 .00375
34 .00250 .62750 .13375
35 .12875 .50250 .12750
36 .12875 .62875 .00250
37 .25375 .50375 .00375
38 .25250 .62750 .13625
39 .38625 .50500 .12750
40 .38625 .62750 .00750
41 .50375 .50500 .01250
42 .50250 .62750 .13000
43 .62875 .50500 .13500
44 .63000 .63000 .00500
45 .75500 .50750 .00250
46 .75375 .62875 .12875
47 .87750 .50375 .12750
48 .88000 .62750 .00250
49 .00250 .75250 .00375
50 .01250 .87750 .13000
51 .12875 .75250 .13125
52 .13125 .87875 .00250
53 .25500 .75250 .00375
54 .25375 .88375 .13375
55 .37875 .75250 .13500
56 .37750 .87750 .00500
57 .50250 .75250 .00875
58 .50250 .87875 .12750
59 .62750 .75250 .12750
60 .63375 .87750 .01000
61 .75250 .75500 .01125
62 .75500 .87750 .12750
63 .87875 .75250 .12875
64 .87875 .87875 .00250
65 .00375 .00375 .22750
66 .00375 .11625 .34125
67 .11625 .00750 .34000
68 .11625 .11625 .23375
69 .22750 .00500 .22875
70 .23000 .12375 .35000
71 .34125 .01125 .34000
72 .34125 .11625 .22750
73 .50375 .00750 .25250
74 .50750 .13625 .38250
75 .62750 .00250 .38125
76 .62875 .13125 .25625
77 .75250 .00500 .25250
78 .75500 .12750 .37875
79 .88000 .00500 .37875
80 .87750 .12875 .25375
81 .00375 .23000 .23375
82 .00250 .34375 .34000
83 .12000 .22750 .34000
84 .11500 .34375 .22750
85 .22750 .22750 .23750
86 .22875 .34000 .34500
87 .35000 .23500 .34125
88 .34000 .34250 .22875
89 .50375 .25500 .25250
90 .51000 .37750 .37750
91 .62875 .25625 .37875
92 .63000 .37750 .25250
93 .76250 .25500 .25250
94 .75250 .37875 .37875
95 .88750 .25500 .37750
96 .88625 .37750 .25250
97 .00625 .50375 .25500
98 .00375 .62875 .37750
99 .12750 .50750 .38625
100 .13125 .62875 .25250
101 .25750 .50250 .25375
102 .25250 .62750 .37750
103 .38000 .50375 .38000
104 .37875 .62750 .25250
105 .51250 .50375 .25250
106 .50250 .62875 .37750
107 .62875 .50500 .37750
108 .62875 .63000 .25500
109 .75375 .50250 .25500
110 .75625 .63375 .37750
111 .87875 .50250 .37875
112 .87750 .63125 .25500
113 .00375 .75250 .25250
114 .00250 .87750 .37750
115 .12875 .75250 .37750
116 .12875 .88000 .25500
117 .25875 .75250 .25250
118 .25250 .88125 .37875
119 .37750 .76125 .37750
120 .37750 .88625 .25250
121 .50250 .75250 .25250
122 .50500 .87875 .37875
123 .63625 .75375 .38000
124 .62875 .88000 .25625
125 .75250 .75375 .25375
126 .75250 .87750 .37750
127 .87875 .75500 .38000
128 .88625 .87750 .25500
129 .00250 .00375 .50250
130 .00250 .12750 .63750
131 .12750 .00250 .62875
132 .13000 .12750 .50250
133 .25250 .00250 .50375
134 .25375 .13625 .62750
135 .37750 .00750 .63375
136 .37750 .12750 .51125
137 .50250 .00375 .51125
138 .50250 .13000 .62875
139 .62750 .00375 .62750
140 .62750 .12875 .50375
141 .75500 .00375 .50375
142 .75375 .12750 .62750
143 .87875 .00250 .62750
144 .88250 .12750 .50625
145 .00375 .25250 .50500
146 .00250 .38000 .62750
147 .12875 .26125 .63000
148 .12875 .38250 .50250
149 .25500 .25375 .50625
150 .25250 .37875 .62750
151 .37875 .25375 .62875
152 .37875 .37750 .50250
153 .50375 .26250 .50250
154 .50375 .37750 .62875
155 .62875 .25250 .62750
156 .62875 .38500 .50250
157 .75250 .25875 .50500
158 .76125 .38375 .63500
159 .88500 .25250 .62750
160 .88250 .38000 .50375
161 .01000 .50375 .50375
162 .00750 .62875 .62875
163 .12875 .50375 .62875
164 .13250 .62875 .50500
165 .25375 .51250 .50250
166 .25250 .62875 .62875
167 .37750 .50500 .62875
168 .38250 .62875 .51250
169 .50250 .51250 .50250
170 .50500 .63750 .63625
171 .62875 .50250 .62750
172 .63375 .63375 .50250
173 .75375 .50375 .50875
174 .75750 .62750 .62750
175 .87750 .50875 .62875
176 .87875 .63625 .50250
177 .00375 .76125 .50625
178 .00250 .88000 .63750
179 .12750 .76250 .63000
180 .12875 .88000 .50250
181 .25375 .75375 .50250
182 .25250 .87875 .62750
183 .38500 .75250 .62750
184 .37750 .88000 .50375
185 .51250 .75375 .50500
186 .50500 .88000 .63625
187 .62875 .75500 .63000
188 .62875 .87750 .51250
189 .75250 .75250 .50375
190 .75375 .88375 .63500
191 .88000 .76250 .62750
192 .87875 .88375 .50250
193 .01000 .00375 .75375
194 .00625 .12875 .87875
195 .12875 .00500 .88000
196 .12750 .12875 .75375
197 .25750 .00250 .75375
198 .25250 .12875 .87750
199 .37750 .00375 .87875
200 .38000 .12750 .75375
201 .50250 .00250 .75625
202 .51125 .12875 .88250
203 .62875 .00250 .87750
204 .62875 .12750 .75250
205 .75750 .00250 .75250
206 .75250 .12750 .87750
207 .88000 .00375 .87750
208 .87750 .12875 .75375
209 .00375 .25375 .75375
210 .00500 .38000 .87750
211 .12875 .25250 .88125
212 .12750 .37750 .75500
213 .25250 .25250 .75250
214 .25500 .37875 .87750
215 .37750 .25750 .88000
216 .38125 .38250 .75625
217 .51000 .25875 .75250
218 .50250 .38375 .88625
219 .62750 .25500 .87750
220 .62875 .37875 .75750
221 .75500 .26125 .75625
222 .76125 .38000 .88000
223 .88000 .25500 .88000
224 .87750 .38125 .76000
225 .01000 .50375 .75375
226 .00500 .63500 .88000
227 .12875 .50250 .87875
228 .13000 .62875 .75250
229 .25250 .50250 .75250
230 .25250 .62750 .87875
231 .38375 .50250 .88125
232 .37875 .62875 .76000
233 .50625 .50375 .75250
234 .50375 .62750 .88500
235 .62875 .50500 .87875
236 .62750 .63000 .75250
237 .75250 .50375 .75375
238 .75250 .63625 .87875
239 .87875 .50375 .88000
240 .88125 .62875 .75500
241 .00625 .75250 .75250
242 .00875 .88000 .87750
243 .12750 .76125 .87875
244 .12750 .88000 .75250
245 .26250 .75250 .75375
246 .25625 .87875 .87875
247 .37875 .75500 .87750
248 .37875 .88625 .75375
249 .51125 .75375 .75375
250 .50250 .87750 .87750
251 .63750 .75375 .87875
252 .62875 .87875 .75250
253 .75250 .75375 .75375
254 .75375 .87750 .87750
255 .87875 .75375 .87875
256 .87875 .87750 .75375
