ITEM: TIMESTEP
1529660
ITEM: NUMBER OF ATOMS
256
ITEM: BOX BOUNDS pp pp pp
0 8.0
0 8.0
0 8.0
ITEM: ATOMS id xs ys zs
2 .00250 .00375 .00250
1 .00250 .12000 .11500
4 .11500 .00750 .12125
3 .12125 .11625 .01125
6 .22875 .00250 .00375
5 .22875 .11750 .12500
8 .34375 .01000 .11500
7 .34250 .11625 .00250
9 .50375 .00500 .00375
10 .50250 .12750 .12750
11 .62750 .00250 .12875
12 .62750 .13750 .00250
13 .75375 .00375 .00250
14 .75500 .12875 .12750
15 .88000 .00250 .12875
16 .88750 .13750 .00375
18 .00750 .22875 .00250
17 .00375 .34000 .11500
20 .11750 .22750 .11625
19 .11500 .34125 .00250
22 .22875 .22750 .00500
21 .22750 .34250 .11500
24 .34000 .23625 .12000
23 .34125 .34125 .00250
25 .50375 .25250 .00375
26 .50750 .37750 .12875
27 .62875 .25750 .12875
28 .62750 .38750 .00500
29 .75500 .25375 .00375
30 .75375 .38125 .12875
31 .87750 .25375 .13375
32 .87875 .37750 .01250
33 .00500 .50375 .00250
34 .00250 .62875 .12875
35 .12875 .50250 .13250
36 .12875 .62875 .00500
37 .26000 .51125 .00375
38 .25750 .63000 .12750
39 .38000 .50250 .13000
40 .37875 .63375 .00250
41 .50375 .50375 .01250
42 .50750 .62875 .12750
43 .63000 .50500 .12750
44 .62750 .62875 .00875
45 .75875 .50875 .00250
46 .75375 .62875 .13125
47 .87875 .50500 .12875
48 .87750 .63000 .00250
49 .00250 .75500 .00250
50 .00500 .88375 .12750
51 .12875 .76125 .13750
52 .13000 .88000 .01250
53 .25250 .75375 .00250
54 .25250 .87750 .12750
55 .37750 .75250 .13625
56 .37750 .87750 .00250
57 .50250 .75375 .01250
58 .50375 .88000 .13125
59 .62875 .75375 .12750
60 .62750 .87750 .00250
61 .75500 .75500 .00375
62 .75250 .87750 .12750
63 .87875 .75375 .12875
64 .87875 .87875 .00250
66 .00250 .00500 .22875
65 .00250 .11875 .34125
68 .11625 .00500 .34000
67 .11625 .11625 .22875
70 .22750 .00250 .22875
69 .22875 .11750 .34125
72 .34000 .01000 .34250
71 .34125 .11500 .22750
73 .50375 .00250 .25375
74 .50500 .12875 .37875
75 .63000 .00250 .38125
76 .63000 .12875 .25250
77 .75375 .01125 .25500
78 .75250 .13000 .37875
79 .87875 .01250 .38750
80 .87750 .12875 .25375
82 .00500 .23000 .22750
81 .00375 .34875 .34000
84 .12500 .23625 .35000
83 .11500 .34125 .22750
86 .23625 .22750 .22750
85 .22750 .34000 .34000
88 .34125 .22875 .34125
87 .34125 .34000 .22875
89 .51125 .25250 .26250
90 .50250 .38625 .37750
91 .62875 .25375 .37875
92 .62875 .38375 .25250
93 .75250 .25500 .25375
94 .75375 .37750 .37875
95 .88750 .25250 .38625
96 .87750 .37875 .25500
97 .00375 .50250 .25750
98 .00250 .62875 .38000
99 .12875 .50250 .37750
100 .12875 .62750 .25250
101 .25250 .50625 .26125
102 .25250 .62750 .37875
103 .38125 .50250 .37875
104 .37875 .63500 .25250
105 .50875 .50250 .25250
106 .50375 .62875 .37875
107 .63000 .50375 .37875
108 .62875 .63000 .25375
109 .75250 .50375 .25250
110 .75375 .63000 .37875
111 .87750 .50375 .37750
112 .87750 .62875 .25250
113 .00500 .75250 .25375
114 .01125 .87875 .37875
115 .12750 .75500 .37750
116 .12750 .87750 .25500
117 .25750 .75375 .25250
118 .25375 .87875 .37875
119 .37875 .75875 .38000
120 .37750 .87875 .25375
121 .50250 .75625 .25375
122 .51250 .87750 .37875
123 .62875 .75250 .37875
124 .62750 .87750 .25500
125 .75375 .75375 .25250
126 .76000 .87750 .37875
127 .87750 .75250 .37750
128 .87875 .87875 .25250
129 .00250 .00625 .51000
130 .00375 .13625 .63000
131 .12750 .00375 .62875
132 .12750 .12750 .50250
133 .25375 .00250 .50250
134 .25500 .13750 .62750
135 .37875 .00500 .63000
136 .38750 .13500 .50250
137 .50250 .00250 .50375
138 .50375 .12875 .62875
139 .63000 .00250 .62750
140 .63000 .12875 .50375
141 .75250 .00500 .50875
142 .75375 .13500 .62750
143 .88000 .00250 .63000
144 .88375 .12750 .50375
145 .01125 .25250 .50375
146 .00875 .37750 .63625
147 .12875 .25375 .62750
148 .13750 .37750 .50250
149 .25250 .25625 .51125
150 .25375 .38625 .62875
151 .38125 .25375 .62750
152 .37750 .37750 .50250
153 .50875 .25250 .50250
154 .51250 .38000 .62875
155 .63000 .25375 .62750
156 .63000 .37750 .51000
157 .75375 .25625 .50250
158 .76125 .38500 .63000
159 .87750 .25250 .63625
160 .87875 .38000 .50250
161 .00375 .51250 .51000
162 .00250 .62750 .63125
163 .12875 .51000 .62750
164 .12875 .62750 .50250
165 .25500 .50250 .50250
166 .25250 .63000 .62750
167 .38375 .50500 .62750
168 .38625 .62750 .50250
169 .50375 .50250 .50250
170 .50375 .62750 .63375
171 .62875 .50250 .63625
172 .62750 .63750 .50375
173 .75375 .50375 .50375
174 .75375 .62875 .62875
175 .88000 .50375 .62750
176 .87875 .62750 .51250
177 .00500 .75375 .50500
178 .00375 .87750 .63500
179 .12750 .75750 .62750
180 .12750 .87750 .50500
181 .26000 .75250 .50375
182 .25500 .87875 .62875
183 .37750 .75375 .62750
184 .37875 .87750 .51125
185 .50375 .75750 .50250
186 .51250 .87750 .62750
187 .63000 .76250 .62875
188 .63000 .87875 .50375
189 .75250 .75375 .50250
190 .75750 .87875 .62750
191 .87875 .75875 .63625
192 .87875 .87750 .50875
193 .00375 .00500 .75250
194 .01125 .12750 .88250
195 .12750 .00375 .87750
196 .12875 .13500 .75875
197 .25750 .00375 .75250
198 .25250 .12875 .87750
199 .38500 .00500 .87875
200 .38000 .12750 .75250
201 .50250 .00375 .75375
202 .50500 .12750 .87875
203 .63375 .00250 .88625
204 .62750 .12875 .75375
205 .75375 .00375 .75375
206 .75250 .13750 .87875
207 .87750 .00250 .87875
208 .87750 .13000 .75375
209 .00375 .25500 .75625
210 .00500 .37750 .87750
211 .13250 .25500 .87875
212 .12875 .37875 .75375
213 .25250 .25250 .75250
214 .25375 .37750 .88750
215 .37750 .25375 .87750
216 .38375 .37875 .75250
217 .50250 .25250 .75250
218 .50375 .37750 .87750
219 .62875 .26000 .87750
220 .62875 .38625 .75375
221 .76250 .26125 .75250
222 .75375 .37750 .87750
223 .87750 .25500 .88750
224 .87875 .37875 .75375
225 .00250 .50250 .75875
226 .00375 .63375 .87875
227 .12875 .50375 .87750
228 .12750 .63500 .75250
229 .25375 .50750 .75375
230 .25250 .62875 .88250
231 .37875 .50250 .88750
232 .37750 .62875 .75250
233 .50500 .50250 .76000
234 .50250 .62875 .87750
235 .63000 .50375 .87875
236 .62750 .63750 .75750
237 .75250 .50500 .75375
238 .75250 .63750 .87875
239 .87875 .50375 .88000
240 .87875 .62750 .75375
241 .00500 .75250 .75250
242 .00250 .88625 .87750
243 .12750 .75375 .88625
244 .12750 .88125 .76125
245 .25375 .75500 .75750
246 .25875 .88000 .88000
247 .38375 .75375 .87875
248 .37750 .87875 .75750
249 .50625 .75750 .75500
250 .50375 .87750 .88000
251 .63125 .75250 .88250
252 .63750 .88000 .75250
253 .75250 .75625 .75250
254 .75375 .88000 .87875
255 .87750 .75250 .87750
256 .87750 .87875 .75375
