ITEM: TIMESTEP
1529520
ITEM: NUMBER OF ATOMS
256
ITEM: BOX BOUNDS pp pp pp
0 8.0
0 8.0
0 8.0
ITEM: ATOMS id xs ys zs
2 .00500 .00375 .01000
1 .00250 .11625 .11625
4 .11750 .00875 .11625
3 .11625 .11625 .00250
6 .22750 .00625 .00250
5 .23125 .11625 .11500
8 .34125 .00250 .11500
7 .34000 .12375 .00375
9 .50250 .00375 .00500
10 .50250 .13625 .13000
11 .63000 .00250 .12750
12 .63000 .13625 .00250
13 .76250 .00375 .01125
14 .75375 .12875 .12875
15 .87750 .00250 .12750
16 .87750 .13250 .01250
18 .00375 .22750 .00375
17 .00375 .34875 .11500
20 .11500 .22750 .11875
19 .12250 .34000 .00375
22 .22750 .22750 .00250
21 .22875 .34000 .11500
24 .34125 .22750 .11500
23 .34625 .34000 .00375
25 .50375 .26250 .00750
26 .50375 .38000 .12875
27 .62875 .25375 .12750
28 .62875 .37875 .00375
29 .75250 .25250 .00375
30 .75375 .37750 .12875
31 .87875 .25375 .13250
32 .87875 .38625 .00375
33 .00375 .50250 .00250
34 .00250 .62750 .13500
35 .13375 .50375 .12875
36 .13000 .62750 .00250
37 .25250 .50375 .01125
38 .25250 .62875 .12875
39 .38125 .50250 .12875
40 .38000 .62750 .01250
41 .50250 .50250 .00875
42 .50375 .62875 .13000
43 .62750 .50250 .13625
44 .62750 .62875 .01125
45 .75250 .50250 .00375
46 .76250 .63125 .12750
47 .88625 .50375 .12750
48 .88750 .62875 .01125
49 .00500 .75375 .00875
50 .00375 .88375 .13000
51 .13000 .75500 .13500
52 .12750 .87875 .00625
53 .25375 .75625 .01250
54 .25375 .87875 .12875
55 .37875 .75500 .12750
56 .37750 .87875 .00375
57 .50250 .75375 .00500
58 .50625 .88625 .13250
59 .63625 .75250 .13375
60 .63125 .88000 .00250
61 .75375 .75375 .00250
62 .76000 .87875 .12875
63 .87750 .75250 .12875
64 .88375 .88125 .00375
66 .00375 .00375 .22875
65 .00375 .11625 .34250
68 .11625 .00375 .34500
67 .11875 .11625 .23375
70 .23250 .00250 .22875
69 .22875 .12000 .34000
72 .34125 .00250 .34125
71 .34000 .11500 .22875
73 .50250 .00250 .25250
74 .50250 .13625 .38000
75 .62750 .00750 .37750
76 .63000 .12750 .25625
77 .75375 .01250 .25375
78 .75250 .13000 .38750
79 .87875 .00250 .37750
80 .87875 .12875 .26250
82 .00375 .22750 .22750
81 .00250 .34125 .34000
84 .11625 .23750 .34125
83 .11500 .34125 .22875
86 .23500 .22875 .22750
85 .22875 .34500 .34000
88 .34000 .23500 .34000
87 .34625 .34000 .22750
89 .51250 .26250 .25750
90 .50375 .37750 .37750
91 .62875 .25375 .37875
92 .62750 .37750 .26000
93 .75250 .25500 .25875
94 .76000 .37875 .38000
95 .88375 .25250 .37750
96 .88625 .37875 .25375
97 .00250 .51000 .25250
98 .00250 .63000 .37875
99 .12750 .50250 .38750
100 .13500 .62875 .26000
101 .25375 .50250 .25250
102 .25375 .62875 .37875
103 .37750 .50250 .37750
104 .37750 .62750 .25250
105 .50875 .50375 .25250
106 .50250 .62750 .37875
107 .62875 .51250 .37875
108 .62750 .62875 .25375
109 .75250 .50375 .25250
110 .75500 .63500 .37875
111 .88125 .50375 .38250
112 .88500 .62875 .25375
113 .00250 .75375 .25375
114 .01125 .87750 .37750
115 .12750 .75375 .37875
116 .13250 .88375 .25500
117 .25250 .76250 .25250
118 .25375 .87750 .37750
119 .37875 .75875 .38000
120 .38750 .87750 .25375
121 .50375 .75250 .25375
122 .50250 .87750 .38625
123 .62750 .75375 .38375
124 .62750 .87875 .25375
125 .75250 .76000 .25750
126 .75250 .87875 .38000
127 .87750 .75500 .37750
128 .87875 .87875 .25750
129 .01000 .00250 .50250
130 .00250 .13625 .63750
131 .12750 .00500 .63250
132 .12875 .12750 .50375
133 .25500 .00750 .50375
134 .26125 .13000 .63250
135 .37750 .00250 .62750
136 .37750 .12750 .50375
137 .50250 .00250 .50500
138 .50375 .12875 .63375
139 .63125 .00250 .62875
140 .62750 .12750 .50250
141 .75250 .00375 .50500
142 .75375 .12875 .62750
143 .87750 .00375 .62875
144 .87750 .12875 .50250
145 .00375 .25500 .50250
146 .00375 .37875 .62875
147 .13000 .26125 .63000
148 .12750 .37875 .50500
149 .25250 .25375 .50625
150 .25375 .37875 .62875
151 .38000 .25375 .63250
152 .37875 .37750 .50500
153 .50375 .25375 .50250
154 .50375 .38250 .62875
155 .62875 .25250 .63500
156 .62875 .37875 .50250
157 .75375 .25375 .50375
158 .75250 .37875 .63000
159 .87875 .25375 .62750
160 .88000 .37750 .50375
161 .00625 .50250 .50250
162 .00375 .62750 .62750
163 .12875 .50375 .62875
164 .12875 .62750 .50250
165 .25375 .51000 .51125
166 .25250 .63375 .62875
167 .37750 .50250 .63000
168 .37875 .62750 .50375
169 .51250 .50250 .50250
170 .50500 .62750 .62875
171 .62875 .50375 .62750
172 .63000 .62875 .50375
173 .75375 .50250 .50375
174 .75250 .62875 .63500
175 .87875 .50375 .63125
176 .87875 .63625 .50250
177 .00375 .75375 .50250
178 .00375 .87750 .63500
179 .12875 .76250 .62875
180 .13500 .87875 .50375
181 .25375 .75250 .50250
182 .25250 .87875 .62875
183 .37875 .75375 .62750
184 .37750 .87750 .50250
185 .50250 .75250 .50500
186 .50500 .87875 .62750
187 .62875 .75250 .62875
188 .62875 .88250 .50750
189 .75375 .75375 .50375
190 .75375 .87875 .62750
191 .87875 .75375 .62750
192 .87750 .88000 .50250
193 .00375 .00875 .75375
194 .00500 .12750 .87750
195 .13000 .01125 .88125
196 .12875 .13250 .75250
197 .25500 .00250 .75250
198 .25250 .13000 .87875
199 .37875 .00500 .88625
200 .37750 .12875 .75375
201 .50500 .00250 .75500
202 .50250 .13750 .87875
203 .62875 .00500 .87750
204 .63500 .13000 .75375
205 .76125 .00500 .75250
206 .75250 .13000 .87875
207 .87750 .00250 .87750
208 .88500 .12875 .75500
209 .00375 .25375 .75250
210 .00250 .37875 .87875
211 .13250 .25250 .88000
212 .12875 .38000 .76000
213 .26250 .25375 .75375
214 .25250 .37750 .87875
215 .38375 .25375 .87750
216 .37750 .37750 .75250
217 .50500 .25250 .75750
218 .50500 .37875 .87750
219 .62750 .25375 .87875
220 .62875 .37875 .75375
221 .75875 .25250 .75750
222 .75375 .37750 .88750
223 .87750 .25375 .87750
224 .87750 .38625 .75250
225 .00250 .50750 .75250
226 .00375 .62750 .87750
227 .12875 .50500 .87875
228 .12875 .62750 .75375
229 .25375 .50250 .75875
230 .25250 .62750 .87875
231 .38500 .50250 .87750
232 .38375 .63000 .75250
233 .50375 .50875 .75375
234 .50375 .62750 .87750
235 .62750 .51250 .87875
236 .62750 .62750 .75250
237 .75500 .50375 .75375
238 .75500 .62875 .88125
239 .87875 .50375 .87750
240 .87750 .62875 .76125
241 .00375 .75375 .75500
242 .00250 .87875 .87875
243 .12875 .75375 .88750
244 .13625 .87750 .75875
245 .25875 .75250 .75375
246 .25250 .87875 .87750
247 .37875 .75625 .87875
248 .37875 .88625 .75750
249 .50875 .75250 .75250
250 .50375 .87875 .87875
251 .62750 .75375 .87875
252 .62750 .88750 .75375
253 .75875 .75750 .75375
254 .75375 .87750 .87750
255 .87875 .75375 .87875
256 .87750 .87875 .75250
