ITEM: TIMESTEP
1528640
ITEM: NUMBER OF ATOMS
256
ITEM: BOX BOUNDS pp pp pp
0 8.0
0 8.0
0 8.0
ITEM: ATOMS id xs ys zs
1 .01000 .00500 .01000
2 .00250 .11500 .11625
3 .11625 .00625 .11500
4 .11625 .12500 .00250
5 .22750 .00875 .00375
6 .23250 .12250 .11500
7 .34000 .00500 .11500
8 .34875 .11750 .00250
9 .50250 .00250 .00375
10 .50250 .13000 .13625
11 .62750 .00500 .12750
12 .62875 .13000 .00750
13 .75500 .00250 .01000
14 .75375 .12750 .12750
15 .87875 .00750 .12875
16 .87750 .12750 .00250
17 .00375 .22875 .00500
18 .00375 .34375 .11625
19 .11750 .23125 .12000
20 .11500 .34250 .00250
21 .22750 .23000 .00375
22 .22750 .34125 .11500
23 .34125 .23000 .11500
24 .34125 .34750 .00375
25 .51250 .25250 .00500
26 .50500 .37750 .12875
27 .62750 .25375 .13375
28 .62875 .37875 .00375
29 .75500 .25750 .00750
30 .75875 .38125 .12875
31 .87875 .25500 .12750
32 .87875 .37875 .00375
33 .00375 .50250 .00375
34 .01125 .62875 .12750
35 .12875 .50500 .13000
36 .12875 .62750 .00250
37 .25250 .50375 .00250
38 .25250 .62875 .12875
39 .38125 .50375 .12875
40 .37750 .62750 .01000
41 .50375 .50375 .00250
42 .50250 .62750 .12750
43 .62875 .50250 .13125
44 .62875 .62750 .00750
45 .75875 .50375 .00250
46 .75250 .63750 .13250
47 .88125 .50250 .12750
48 .88750 .62750 .00250
49 .00875 .75500 .00375
50 .00500 .88625 .12875
51 .12750 .75500 .12875
52 .13500 .87875 .00500
53 .25375 .75250 .00250
54 .25375 .88000 .13375
55 .38125 .76250 .13250
56 .38000 .88000 .00250
57 .50500 .75750 .00375
58 .50250 .87875 .12750
59 .62875 .75375 .12750
60 .62750 .87750 .00375
61 .76000 .75500 .00375
62 .75250 .87875 .12750
63 .87750 .75500 .12875
64 .88750 .87875 .00250
65 .00500 .00375 .23375
66 .00750 .11625 .34000
67 .11625 .00500 .34375
68 .11500 .11625 .23000
69 .22750 .00250 .22875
70 .22750 .11500 .34000
71 .34125 .00250 .34875
72 .34375 .11500 .23625
73 .50375 .00250 .25250
74 .50375 .12750 .37750
75 .62875 .00250 .38000
76 .62875 .12875 .25750
77 .75375 .00250 .25250
78 .75375 .13375 .38625
79 .88125 .00500 .38750
80 .87750 .12875 .25250
81 .00250 .23000 .22875
82 .00375 .34000 .34125
83 .11625 .23125 .34000
84 .11750 .34250 .23000
85 .23375 .23000 .22750
86 .22750 .34125 .34875
87 .34000 .22875 .34875
88 .34000 .34125 .22750
89 .50375 .25500 .26125
90 .50500 .38750 .37750
91 .62875 .25500 .37750
92 .62750 .37875 .25375
93 .75250 .25500 .25375
94 .75250 .37875 .37875
95 .87750 .25625 .37875
96 .87875 .38500 .25375
97 .01250 .50250 .25250
98 .00250 .62875 .37750
99 .12750 .50250 .38500
100 .12875 .62750 .26000
101 .25250 .50250 .25250
102 .25375 .63000 .37875
103 .38000 .51125 .38000
104 .38250 .62875 .25375
105 .50250 .50500 .25500
106 .50500 .63250 .37750
107 .62750 .50250 .37750
108 .62875 .63125 .25250
109 .75500 .50750 .26125
110 .75375 .62750 .37750
111 .87875 .50500 .37750
112 .87875 .63375 .25250
113 .00375 .75250 .25250
114 .00250 .87875 .37875
115 .12875 .75500 .38625
116 .13250 .87750 .25375
117 .25375 .75625 .25250
118 .25375 .87750 .37750
119 .38000 .76250 .37875
120 .38250 .87875 .25500
121 .50500 .76250 .25250
122 .50250 .87750 .37875
123 .62875 .76250 .38625
124 .62875 .87875 .25500
125 .76000 .75250 .26125
126 .75500 .87750 .37875
127 .87750 .75250 .38375
128 .88625 .88000 .25250
129 .00375 .00375 .50500
130 .01000 .12875 .62750
131 .12750 .00375 .62875
132 .13000 .13500 .50250
133 .25250 .00375 .50375
134 .25375 .12875 .63000
135 .38125 .01250 .62875
136 .37875 .12750 .50750
137 .50250 .00375 .50375
138 .50375 .13500 .62875
139 .62875 .00375 .62875
140 .62875 .12750 .50500
141 .75375 .00250 .50250
142 .75250 .12875 .63625
143 .87875 .00375 .62875
144 .87750 .12875 .50500
145 .00375 .25250 .50250
146 .00250 .38125 .62750
147 .13000 .25375 .63625
148 .12875 .37875 .50250
149 .25875 .26250 .50250
150 .25500 .37750 .62875
151 .38250 .25250 .63750
152 .38000 .38125 .50250
153 .50250 .25750 .50375
154 .50250 .37875 .62750
155 .62750 .25375 .62875
156 .63125 .37750 .50500
157 .75375 .25250 .51250
158 .75375 .37750 .62875
159 .87875 .25625 .63375
160 .87875 .37875 .50250
161 .00500 .50375 .50375
162 .00375 .63750 .62875
163 .13000 .50750 .63375
164 .12875 .62875 .50375
165 .25375 .50250 .50250
166 .25375 .62750 .63375
167 .37875 .50250 .63125
168 .37875 .62750 .50500
169 .50250 .50250 .50375
170 .50250 .63000 .62750
171 .62750 .50250 .63250
172 .62750 .62750 .50625
173 .75250 .50875 .50375
174 .76000 .62875 .63375
175 .87875 .50375 .63250
176 .87875 .63000 .50375
177 .01000 .75375 .50250
178 .00250 .87750 .63375
179 .12875 .75750 .62875
180 .13000 .87750 .50375
181 .25375 .76125 .50500
182 .26125 .88500 .62750
183 .37750 .75250 .62875
184 .37750 .87875 .50375
185 .50250 .75250 .50500
186 .50500 .88250 .62875
187 .62875 .75625 .62750
188 .63500 .87875 .50875
189 .75375 .75250 .50375
190 .75250 .87875 .62875
191 .87750 .75375 .62875
192 .87750 .87875 .50375
193 .00375 .00375 .75375
194 .00250 .12875 .87875
195 .13000 .00250 .87750
196 .12750 .12750 .75375
197 .25375 .00375 .75250
198 .25625 .13625 .88500
199 .37750 .00250 .88000
200 .37750 .12875 .75375
201 .50250 .00250 .75500
202 .50500 .13750 .87750
203 .62875 .01250 .87750
204 .62875 .12750 .75250
205 .75250 .00875 .75250
206 .75500 .12875 .87875
207 .88250 .00375 .88500
208 .88000 .12875 .75500
209 .00250 .25375 .75375
210 .00250 .37875 .88000
211 .12875 .25375 .88500
212 .12750 .38250 .75375
213 .25250 .25500 .75500
214 .25375 .37750 .87750
215 .38000 .25250 .87875
216 .38750 .38625 .75250
217 .51125 .25500 .75250
218 .50375 .38500 .87750
219 .63000 .25250 .87750
220 .62750 .38375 .75500
221 .75375 .25750 .75375
222 .75375 .38625 .87750
223 .87750 .25375 .87750
224 .87750 .37875 .75250
225 .00250 .50250 .75375
226 .00375 .62750 .87750
227 .12750 .51250 .87750
228 .13000 .63000 .76000
229 .26125 .50375 .75375
230 .26000 .63250 .87750
231 .37750 .50375 .87750
232 .37875 .62750 .75250
233 .50250 .50250 .75250
234 .50250 .63000 .88000
235 .62750 .50375 .87875
236 .63000 .63250 .76125
237 .75375 .50875 .75250
238 .75375 .63000 .88125
239 .88000 .50500 .87750
240 .87750 .63500 .75375
241 .00250 .75250 .75750
242 .01250 .87875 .88000
243 .12875 .75375 .87875
244 .13000 .87750 .76125
245 .25375 .75500 .75500
246 .25250 .88000 .88125
247 .37875 .75875 .87875
248 .38750 .87750 .75250
249 .50250 .75750 .75375
250 .50375 .88250 .87875
251 .63000 .75375 .88000
252 .62750 .88500 .75500
253 .75500 .75875 .75375
254 .75375 .88125 .88500
255 .87750 .75250 .87750
256 .88000 .87875 .75375
