ITEM: TIMESTEP
1529200
ITEM: NUMBER OF ATOMS
256
ITEM: BOX BOUNDS pp pp pp
0 8.0
0 8.0
0 8.0
ITEM: ATOMS id xs ys zs
2 .00375 .00375 .00375
1 .00250 .11500 .12250
4 .11625 .01125 .11500
3 .11625 .11500 .00375
6 .22750 .00375 .01125
5 .22750 .11500 .11625
8 .34125 .00500 .11500
7 .34125 .11750 .00250
9 .50250 .00250 .00375
10 .50625 .13750 .12875
11 .63125 .00250 .12875
12 .63000 .12875 .00375
13 .75375 .00250 .00500
14 .75250 .12875 .13125
15 .87875 .00375 .12875
16 .87750 .12750 .00250
18 .00250 .22875 .00875
17 .00250 .34000 .11500
20 .11500 .22875 .11500
19 .11500 .34125 .00250
22 .23000 .22875 .00250
21 .22875 .34125 .12375
24 .34375 .22875 .11750
23 .34125 .34250 .00250
25 .50250 .25375 .00250
26 .50500 .38625 .13625
27 .62875 .26250 .12875
28 .63000 .37750 .00250
29 .75250 .25375 .00250
30 .75500 .37875 .13000
31 .87750 .25250 .13625
32 .88500 .37750 .01250
33 .01000 .51000 .00375
34 .00250 .62875 .12750
35 .12750 .50375 .12875
36 .12875 .62750 .00250
37 .25250 .50375 .00375
38 .25375 .62875 .13000
39 .37750 .50375 .12750
40 .38500 .62750 .00500
41 .50250 .50375 .00250
42 .50250 .63000 .12750
43 .62875 .50375 .13125
44 .62750 .62750 .00500
45 .76125 .50250 .00250
46 .75375 .63000 .13000
47 .88750 .51125 .12750
48 .87875 .63125 .00250
49 .00375 .75250 .00375
50 .00500 .87875 .12750
51 .12750 .75875 .12750
52 .13250 .87875 .01125
53 .25375 .75250 .00375
54 .25750 .88750 .12750
55 .37875 .75375 .12875
56 .38375 .87875 .00750
57 .50250 .75500 .00750
58 .50250 .88000 .12750
59 .62875 .75500 .13000
60 .63125 .88375 .00375
61 .75375 .75375 .00875
62 .75250 .87750 .12750
63 .88375 .75875 .12875
64 .88000 .87750 .00250
66 .00250 .00250 .22750
65 .00625 .11750 .34125
68 .11750 .00250 .34250
67 .11500 .11500 .23625
70 .22750 .00500 .23125
69 .22875 .12375 .34125
72 .34125 .00375 .34375
71 .34000 .12125 .23000
73 .50250 .01250 .26250
74 .50250 .13000 .37875
75 .62750 .00875 .38000
76 .62875 .12875 .25250
77 .75375 .00250 .25375
78 .75250 .12750 .38375
79 .88000 .01125 .37750
80 .88000 .12875 .26125
82 .00375 .22750 .23000
81 .00500 .34500 .34250
84 .11500 .22875 .34625
83 .11500 .34000 .22750
86 .22875 .22750 .23125
85 .22750 .34125 .34000
88 .34250 .22750 .34250
87 .34125 .34000 .22750
89 .50250 .25250 .25250
90 .50250 .38500 .37750
91 .62875 .25250 .38000
92 .63750 .37750 .26000
93 .75500 .26000 .25250
94 .76125 .37875 .37750
95 .87875 .25500 .38250
96 .87750 .38000 .25250
97 .00375 .50250 .25250
98 .00250 .62875 .37875
99 .12750 .50375 .38000
100 .12875 .62875 .25375
101 .25375 .50375 .25375
102 .25250 .63500 .37750
103 .38000 .50375 .37875
104 .37750 .62750 .25375
105 .50875 .50250 .25375
106 .50500 .63750 .37750
107 .62875 .50375 .38500
108 .62875 .63000 .25500
109 .75375 .50375 .26125
110 .75500 .62750 .37750
111 .87875 .50250 .37750
112 .88000 .62875 .26250
113 .01000 .75500 .25375
114 .00375 .87875 .38500
115 .12875 .75250 .38000
116 .12875 .87750 .26125
117 .25375 .76125 .25250
118 .25750 .88000 .37750
119 .37875 .75250 .37875
120 .37750 .87750 .25500
121 .50250 .75375 .25250
122 .50375 .87750 .37750
123 .63000 .75250 .37750
124 .62750 .87875 .25375
125 .75375 .75375 .25250
126 .75375 .87875 .38000
127 .88000 .75875 .37875
128 .88375 .87875 .25250
129 .00375 .00375 .51250
130 .00250 .13000 .62750
131 .13000 .00500 .62875
132 .12750 .12875 .50375
133 .25250 .00250 .50375
134 .26125 .12875 .63375
135 .37875 .00375 .62875
136 .37750 .12875 .50375
137 .50250 .00250 .50250
138 .50375 .13500 .62875
139 .62875 .00250 .62875
140 .62750 .13750 .50250
141 .76250 .00250 .50375
142 .75375 .12750 .62750
143 .87750 .00625 .62750
144 .88000 .13750 .50375
145 .00500 .25250 .50375
146 .00375 .37750 .62750
147 .12750 .25500 .62750
148 .12750 .38000 .50250
149 .25250 .25250 .50250
150 .25250 .37875 .63375
151 .37750 .25375 .62875
152 .37875 .38625 .50250
153 .50500 .25625 .50375
154 .50250 .37875 .62875
155 .62875 .25375 .63250
156 .62750 .37875 .51000
157 .75375 .25375 .50250
158 .75250 .37750 .62875
159 .87750 .25375 .62875
160 .87875 .37875 .50250
161 .00250 .50250 .50375
162 .00375 .62750 .62750
163 .12875 .50375 .62875
164 .12875 .62875 .50375
165 .25500 .50250 .51125
166 .25250 .62750 .62875
167 .38375 .50500 .63000
168 .37750 .62875 .51125
169 .50875 .50250 .50875
170 .50250 .62750 .62875
171 .62750 .51125 .62875
172 .62875 .62875 .50250
173 .75250 .50375 .50250
174 .75250 .62875 .62875
175 .88000 .50500 .62875
176 .88000 .63000 .50750
177 .00375 .75375 .50875
178 .00250 .87875 .63125
179 .12750 .75500 .62875
180 .12875 .87750 .50250
181 .25375 .76250 .50375
182 .25375 .87875 .62750
183 .37875 .75250 .63375
184 .37875 .88625 .50500
185 .50375 .75875 .50500
186 .50375 .88000 .62875
187 .62875 .75250 .62750
188 .62750 .87750 .50250
189 .75250 .75500 .50250
190 .76125 .87875 .63375
191 .88625 .75625 .62875
192 .87750 .88000 .51250
193 .00250 .00250 .75250
194 .00375 .12750 .88000
195 .12750 .00750 .88000
196 .12750 .12750 .75250
197 .25500 .00750 .75375
198 .25375 .12750 .88125
199 .37875 .00250 .87750
200 .37750 .12875 .75500
201 .50250 .00375 .75250
202 .50875 .12750 .87750
203 .63000 .00250 .87750
204 .62750 .12875 .76250
205 .75375 .00625 .75375
206 .75375 .13000 .87875
207 .87875 .00250 .87750
208 .87875 .13375 .75375
209 .00375 .25500 .75250
210 .00250 .38750 .87875
211 .12750 .25375 .87875
212 .12875 .38000 .75500
213 .26250 .25375 .75250
214 .25250 .38625 .87875
215 .37875 .25375 .87750
216 .38625 .37750 .76250
217 .50250 .25375 .76000
218 .50500 .37875 .88625
219 .62750 .25625 .88750
220 .62750 .37875 .75500
221 .75250 .25500 .75250
222 .75500 .37875 .87750
223 .87875 .25250 .87875
224 .87750 .37875 .76000
225 .00375 .50375 .75500
226 .00250 .62875 .88000
227 .12750 .50250 .88250
228 .12750 .62750 .75875
229 .25250 .51250 .75250
230 .25375 .62875 .88000
231 .37875 .50250 .87750
232 .37750 .62875 .76250
233 .51125 .50250 .75375
234 .50375 .62875 .87750
235 .63250 .50250 .87875
236 .62875 .63500 .75250
237 .75250 .50500 .75375
238 .75250 .62750 .88250
239 .88375 .50375 .87875
240 .88750 .62750 .75500
241 .00250 .75375 .75375
242 .00375 .87875 .87875
243 .13750 .75375 .87875
244 .13000 .88000 .75500
245 .26125 .75875 .75250
246 .25375 .87750 .87750
247 .38625 .75750 .87750
248 .38000 .87750 .75250
249 .50250 .75250 .76000
250 .50250 .88125 .87875
251 .63500 .75750 .88250
252 .62875 .87750 .75375
253 .76125 .75375 .75375
254 .75250 .88500 .87750
255 .87875 .76000 .88000
256 .88000 .87750 .76250
