ITEM: TIMESTEP
1528440
ITEM: NUMBER OF ATOMS
256
ITEM: BOX BOUNDS pp pp pp
0 8.0
0 8.0
0 8.0
ITEM: ATOMS id xs ys zs
1 .00250 .00250 .00250
2 .00250 .11500 .12125
3 .11500 .00500 .12500
4 .11625 .11625 .00250
5 .23250 .01125 .00250
6 .22875 .11750 .11625
7 .34125 .00250 .11500
8 .34750 .11625 .00250
9 .51250 .00375 .00375
10 .50250 .12750 .13625
11 .63375 .00250 .12750
12 .62875 .13500 .00250
13 .75375 .00625 .01250
14 .75250 .13000 .12875
15 .87875 .00375 .12750
16 .88000 .12875 .00375
17 .00375 .22875 .00250
18 .00375 .34000 .11625
19 .11875 .22875 .11500
20 .11625 .34000 .00375
21 .22875 .22750 .00500
22 .22750 .34125 .11625
23 .34125 .22875 .12375
24 .34125 .34000 .00375
25 .51000 .25250 .00375
26 .50750 .37875 .12875
27 .62750 .25375 .12750
28 .62875 .37750 .00250
29 .75750 .25625 .00375
30 .75250 .37875 .13000
31 .87875 .25250 .12875
32 .87875 .37875 .00250
33 .00250 .50250 .00375
34 .00250 .62875 .13000
35 .12875 .50375 .12750
36 .12750 .62875 .00250
37 .25625 .50250 .00250
38 .25250 .62750 .12875
39 .37875 .51125 .13625
40 .37875 .62750 .00250
41 .50250 .50250 .00750
42 .50375 .62750 .12875
43 .62750 .50375 .13375
44 .63500 .62750 .01000
45 .75500 .50250 .00250
46 .75375 .63000 .13000
47 .87875 .50250 .12750
48 .87875 .62875 .00250
49 .00500 .75250 .00375
50 .00375 .87750 .12875
51 .12750 .75375 .12750
52 .12750 .88000 .00375
53 .25250 .76000 .01250
54 .25250 .87750 .12875
55 .38500 .75750 .12750
56 .37750 .87750 .00375
57 .50250 .75375 .00250
58 .50875 .87875 .13000
59 .62750 .75875 .12750
60 .63000 .87750 .00500
61 .75375 .75500 .00250
62 .75250 .87750 .12875
63 .87875 .75250 .12750
64 .87750 .87875 .00250
65 .00500 .00250 .22750
66 .00375 .11625 .34125
67 .11750 .00250 .34125
68 .11625 .12000 .22750
69 .22750 .00625 .23625
70 .22875 .11500 .34625
71 .34000 .00500 .34125
72 .34125 .12375 .22875
73 .50250 .01000 .25250
74 .50375 .12750 .38000
75 .62875 .00375 .38125
76 .62750 .13375 .26000
77 .75250 .00250 .25375
78 .75500 .13125 .38000
79 .87750 .00375 .37875
80 .87750 .12750 .26250
81 .00250 .22750 .23000
82 .01250 .34000 .34000
83 .12250 .22750 .34625
84 .11625 .34250 .22750
85 .22875 .22875 .22875
86 .22750 .34125 .34000
87 .34750 .22750 .34125
88 .34250 .34000 .22875
89 .50375 .25375 .25250
90 .50500 .38250 .38250
91 .62875 .25250 .37875
92 .63000 .37750 .25500
93 .75875 .25875 .25500
94 .75250 .37875 .37750
95 .88750 .25375 .38625
96 .87875 .37750 .25250
97 .00375 .50375 .25250
98 .00375 .63750 .37750
99 .12750 .50375 .37750
100 .12750 .62875 .25250
101 .25375 .50250 .25250
102 .25250 .63500 .37750
103 .37750 .50250 .37750
104 .37750 .62875 .25250
105 .50375 .50250 .25500
106 .50375 .63000 .38500
107 .62750 .50375 .38125
108 .62875 .63625 .25250
109 .75750 .50250 .25250
110 .75250 .62750 .37750
111 .87750 .50375 .37750
112 .87750 .63000 .26000
113 .00250 .75250 .25375
114 .00250 .87875 .37750
115 .13125 .76125 .37750
116 .12875 .87750 .26250
117 .26000 .75250 .25375
118 .25625 .87750 .37750
119 .38250 .75250 .37875
120 .37875 .87875 .25750
121 .50375 .75875 .25375
122 .50625 .87875 .37750
123 .62750 .75250 .38000
124 .63750 .88250 .25250
125 .75875 .75375 .25375
126 .75250 .87875 .37875
127 .88000 .75250 .38125
128 .87875 .87875 .25375
129 .00500 .00500 .51000
130 .00875 .12750 .62750
131 .13750 .00500 .62875
132 .13000 .12750 .50375
133 .25375 .00375 .50375
134 .26250 .12875 .62750
135 .38125 .00500 .63750
136 .37875 .13750 .50500
137 .50250 .00250 .50250
138 .50375 .12750 .62875
139 .63750 .00875 .62750
140 .63000 .12875 .50250
141 .75500 .00250 .50875
142 .75375 .13125 .63375
143 .87750 .00625 .62750
144 .88750 .13500 .51000
145 .00250 .25500 .51125
146 .00750 .38750 .63125
147 .13000 .25375 .62750
148 .12750 .37875 .50250
149 .25375 .25375 .50250
150 .25500 .38000 .62875
151 .38625 .26000 .63750
152 .37875 .37875 .50250
153 .50250 .25375 .50375
154 .50500 .37875 .63000
155 .62750 .25375 .62750
156 .62750 .37750 .50500
157 .75875 .25500 .50375
158 .75875 .37750 .62875
159 .87750 .25375 .62875
160 .88000 .38375 .50250
161 .01250 .50375 .51125
162 .00750 .62875 .62750
163 .12750 .50375 .63375
164 .12875 .62875 .50375
165 .25500 .50500 .50750
166 .26250 .62750 .63125
167 .37875 .50250 .63250
168 .37750 .62750 .50250
169 .51125 .50250 .50375
170 .50500 .62875 .62750
171 .62875 .50375 .62750
172 .62875 .63000 .50375
173 .75625 .50375 .50875
174 .75750 .62750 .63125
175 .87750 .50375 .62750
176 .88000 .62875 .50375
177 .00250 .75500 .50250
178 .00625 .88000 .62875
179 .13000 .75500 .62875
180 .13000 .87875 .50250
181 .25500 .75500 .50250
182 .25250 .88750 .62875
183 .38000 .76000 .62875
184 .37750 .87750 .50375
185 .50250 .75250 .50250
186 .50375 .87875 .62875
187 .62875 .76125 .62875
188 .62750 .87875 .50375
189 .75250 .75250 .50375
190 .76000 .87750 .63750
191 .87875 .75250 .62750
192 .87875 .88750 .50375
193 .00375 .00250 .75375
194 .00750 .12875 .87750
195 .12875 .01000 .87750
196 .12750 .12875 .75750
197 .25250 .00375 .75500
198 .25875 .12750 .88375
199 .37875 .00250 .88250
200 .37875 .12875 .75250
201 .50250 .00375 .75500
202 .50500 .12750 .87875
203 .62750 .01250 .87875
204 .62750 .12750 .75500
205 .76000 .00250 .75375
206 .75250 .12875 .88000
207 .87875 .00250 .87875
208 .88000 .13375 .76125
209 .00375 .25250 .75250
210 .00375 .38625 .87750
211 .12875 .26250 .88375
212 .12875 .37750 .75375
213 .25250 .25375 .75875
214 .25375 .38250 .87875
215 .37750 .25250 .87875
216 .38250 .38750 .75375
217 .50375 .25375 .75250
218 .50375 .38000 .87875
219 .63625 .25375 .88000
220 .62750 .38250 .75500
221 .75250 .25250 .75250
222 .75250 .37875 .87875
223 .87750 .26250 .87875
224 .87750 .37875 .75250
225 .00250 .50375 .75375
226 .00250 .62875 .87875
227 .12750 .51250 .87750
228 .13000 .63375 .75375
229 .25375 .50500 .75375
230 .25500 .63000 .88750
231 .37750 .50250 .87750
232 .37750 .62875 .75750
233 .50375 .50625 .75500
234 .50250 .62750 .87750
235 .62875 .50250 .88750
236 .63250 .62750 .75375
237 .75875 .50250 .75250
238 .76000 .63000 .88625
239 .87875 .50375 .88000
240 .88500 .63000 .75250
241 .00375 .75250 .75500
242 .00500 .87875 .88500
243 .12750 .75250 .88625
244 .13000 .87750 .75250
245 .25250 .75375 .75500
246 .25375 .88000 .87750
247 .37875 .75250 .87750
248 .37875 .87750 .75375
249 .50375 .75500 .75375
250 .50375 .88750 .87750
251 .62750 .75375 .88250
252 .63250 .88000 .75375
253 .75250 .75375 .75500
254 .75250 .87750 .88625
255 .88750 .75250 .87875
256 .87875 .88125 .75250
