ITEM: TIMESTEP
1529040
ITEM: NUMBER OF ATOMS
256
ITEM: BOX BOUNDS pp pp pp
0 8.0
0 8.0
0 8.0
ITEM: ATOMS id xs ys zs
1 .00250 .00375 .00250
2 .00375 .11500 .11500
3 .11500 .00250 .11500
4 .11875 .11750 .01000
5 .22750 .01125 .00250
6 .22750 .11750 .11500
7 .34750 .00375 .11625
8 .34875 .11500 .00750
9 .50375 .00250 .00750
10 .50250 .12875 .12750
11 .63625 .00375 .12875
12 .62750 .12750 .00500
13 .75625 .00375 .00375
14 .75375 .13625 .12750
15 .87875 .00500 .12750
16 .87875 .12750 .00500
17 .00625 .22750 .00250
18 .00500 .34125 .11875
19 .11625 .22875 .11625
20 .11500 .34125 .00250
21 .22750 .22750 .01000
22 .22750 .34000 .11500
23 .34125 .23125 .12500
24 .34000 .34250 .01250
25 .50375 .25375 .00375
26 .50375 .37750 .12875
27 .62750 .25250 .12875
28 .63125 .38000 .00500
29 .75500 .26250 .00750
30 .75250 .37875 .12750
31 .88000 .25250 .12750
32 .88125 .37750 .00375
33 .00375 .50500 .00500
34 .00500 .62750 .12750
35 .12750 .50375 .12875
36 .12750 .62875 .00500
37 .25375 .50375 .00500
38 .25250 .63375 .13000
39 .37875 .50375 .12875
40 .38000 .62750 .00500
41 .50375 .50250 .00250
42 .50375 .62875 .12750
43 .62750 .50500 .13000
44 .62750 .62875 .00375
45 .75375 .50500 .00375
46 .75250 .62750 .12750
47 .88750 .50500 .12750
48 .88625 .62750 .00375
49 .00250 .75250 .00250
50 .01000 .87750 .12875
51 .12875 .75250 .13000
52 .12875 .87875 .00250
53 .25250 .75500 .00375
54 .25250 .87750 .12750
55 .37875 .75375 .12750
56 .37875 .87875 .00500
57 .50250 .75250 .00250
58 .50375 .88500 .12875
59 .63125 .76125 .12875
60 .62750 .88125 .01250
61 .75250 .75375 .00375
62 .76250 .88000 .12875
63 .88000 .75375 .12750
64 .87875 .87750 .00250
65 .00250 .01000 .22750
66 .01250 .11500 .34125
67 .11500 .00375 .34250
68 .11625 .11500 .22875
69 .23000 .00375 .22875
70 .22875 .11625 .35000
71 .34250 .00375 .34625
72 .34125 .12250 .22875
73 .50500 .00250 .25250
74 .50250 .12875 .38000
75 .62875 .00250 .37875
76 .62750 .12875 .25375
77 .75375 .00875 .25375
78 .75500 .13000 .37750
79 .87875 .00375 .38750
80 .87750 .13000 .25375
81 .00250 .23750 .23000
82 .00375 .34000 .34125
83 .11625 .22750 .34375
84 .11500 .34250 .22750
85 .22750 .22750 .22875
86 .22750 .34625 .34125
87 .34875 .22875 .34125
88 .34750 .34000 .22750
89 .50625 .26125 .25875
90 .50250 .37875 .37750
91 .62875 .26250 .38000
92 .63000 .37750 .25500
93 .75750 .25500 .25375
94 .75375 .38250 .37875
95 .87875 .25375 .38750
96 .87875 .37750 .25375
97 .00375 .50375 .25500
98 .00625 .63375 .38250
99 .12750 .50375 .37875
100 .12750 .62750 .25250
101 .25375 .50250 .25375
102 .25250 .63000 .37750
103 .37875 .50500 .37875
104 .37750 .63125 .25625
105 .50375 .50375 .25500
106 .50250 .63125 .38125
107 .62750 .50250 .38750
108 .62750 .62750 .25375
109 .75375 .50250 .25250
110 .75625 .62750 .37750
111 .88125 .51000 .37750
112 .87750 .62750 .25375
113 .00375 .75625 .25250
114 .00250 .87750 .37750
115 .12750 .76000 .37875
116 .12750 .87750 .25250
117 .25625 .75375 .25500
118 .25250 .87875 .37750
119 .38000 .75250 .37875
120 .37750 .87875 .26125
121 .50250 .75250 .25375
122 .50250 .87875 .38000
123 .62875 .75375 .38250
124 .62875 .87875 .25250
125 .75250 .75500 .26250
126 .75500 .87875 .37750
127 .87875 .76250 .37875
128 .87875 .88000 .26125
129 .00375 .00750 .50375
130 .00375 .13500 .62750
131 .13000 .00250 .63625
132 .12875 .12875 .51000
133 .25375 .00250 .50375
134 .25250 .13000 .62875
135 .37750 .00250 .62750
136 .37750 .12750 .50375
137 .50375 .00250 .50250
138 .50250 .12875 .63125
139 .62875 .00250 .63375
140 .62875 .12750 .50875
141 .75375 .00250 .50375
142 .75250 .12750 .62750
143 .87750 .00375 .62750
144 .87750 .12750 .50375
145 .00375 .25375 .50250
146 .00375 .38500 .62875
147 .13625 .25375 .62750
148 .12750 .37875 .50375
149 .25250 .25500 .50250
150 .25375 .37875 .62875
151 .37875 .25375 .62750
152 .38000 .37750 .50375
153 .50250 .25375 .50375
154 .50750 .38000 .63500
155 .63000 .25500 .63375
156 .62875 .38125 .50250
157 .75250 .26125 .50250
158 .75625 .37875 .63125
159 .88500 .25375 .63000
160 .87875 .37750 .50375
161 .00500 .50250 .50375
162 .00500 .62875 .62750
163 .12750 .50250 .62750
164 .13250 .62875 .50375
165 .25500 .50375 .50375
166 .25250 .63250 .62875
167 .38000 .50250 .62875
168 .37875 .62875 .50250
169 .50250 .50375 .50375
170 .50250 .63000 .62750
171 .62875 .50375 .62750
172 .62750 .62750 .50250
173 .75500 .50375 .50625
174 .75250 .62750 .62750
175 .87750 .50375 .62875
176 .87875 .62750 .50250
177 .01000 .75250 .50250
178 .01250 .87750 .63500
179 .13250 .75375 .62875
180 .12750 .88000 .50250
181 .25500 .75500 .50250
182 .26250 .87875 .62750
183 .37875 .75375 .63500
184 .37875 .87875 .50500
185 .50250 .75250 .50375
186 .50625 .88500 .63625
187 .63750 .75375 .62875
188 .63000 .87875 .51125
189 .75375 .75250 .50250
190 .75375 .87750 .62750
191 .88000 .75375 .62875
192 .88000 .87875 .50250
193 .00375 .00250 .75250
194 .00250 .12750 .87875
195 .12750 .00250 .87875
196 .12875 .12750 .75500
197 .26125 .00250 .75250
198 .25500 .12750 .88000
199 .37750 .00250 .87750
200 .37875 .12875 .75250
201 .50750 .00625 .75375
202 .50375 .12875 .88375
203 .63625 .00375 .87875
204 .62750 .13000 .75375
205 .75250 .00375 .75500
206 .76000 .13125 .88000
207 .87875 .00250 .88000
208 .87875 .13625 .75500
209 .01250 .25500 .75375
210 .01000 .37750 .87875
211 .12750 .26125 .87750
212 .12875 .37875 .76000
213 .25375 .25375 .75500
214 .25500 .37875 .87875
215 .38625 .26250 .88000
216 .38125 .37750 .75250
217 .50750 .25500 .75375
218 .50375 .38000 .88500
219 .62750 .25375 .87875
220 .62875 .37750 .75375
221 .75250 .25250 .75250
222 .75500 .37875 .87750
223 .88000 .25250 .88000
224 .87750 .38750 .75250
225 .00375 .50250 .75500
226 .00375 .63375 .87875
227 .12750 .50250 .87750
228 .12750 .62750 .75750
229 .25250 .50250 .75375
230 .25500 .62875 .87875
231 .37750 .50250 .88000
232 .37875 .62750 .75375
233 .50250 .50375 .75375
234 .50250 .62750 .87875
235 .62750 .50250 .87750
236 .62750 .62750 .75375
237 .75500 .50250 .76125
238 .75375 .63625 .87875
239 .87750 .50500 .87875
240 .87875 .62875 .75500
241 .00250 .75375 .75500
242 .00375 .87750 .87875
243 .13000 .75250 .87875
244 .12750 .88250 .75250
245 .25375 .75375 .75375
246 .25875 .87750 .87875
247 .38000 .75375 .87750
248 .37875 .87875 .75250
249 .50375 .75375 .75250
250 .51000 .88250 .88500
251 .62750 .75250 .87750
252 .62875 .87875 .75250
253 .76250 .75250 .75250
254 .75250 .88250 .88125
255 .87875 .75375 .87875
256 .87750 .87750 .75250
