ITEM: TIMESTEP
1528680
ITEM: NUMBER OF ATOMS
256
ITEM: BOX BOUNDS pp pp pp
0 8.0
0 8.0
0 8.0
ITEM: ATOMS id xs ys zs
1 .00250 .00250 .00375
2 .00500 .11500 .11500
3 .11625 .00250 .11625
4 .11500 .11625 .00875
5 .22750 .00375 .01000
6 .23250 .11625 .11625
7 .34000 .01125 .12250
8 .34125 .11750 .00625
9 .50375 .00375 .00250
10 .51125 .12750 .13375
11 .63000 .00375 .12750
12 .63375 .13625 .00375
13 .75250 .00375 .00250
14 .75500 .12750 .13750
15 .87875 .01000 .12750
16 .87875 .12750 .00250
17 .00500 .23500 .00375
18 .01125 .34250 .11625
19 .11625 .22875 .11625
20 .12375 .34125 .00250
21 .23500 .22750 .00375
22 .22750 .34000 .11500
23 .34375 .23000 .11500
24 .34625 .34250 .00375
25 .50375 .25500 .00250
26 .50375 .38000 .12750
27 .62875 .25250 .12750
28 .62750 .37750 .00375
29 .75375 .25375 .00250
30 .75875 .37750 .12875
31 .87875 .25625 .13000
32 .87875 .38000 .00250
33 .00250 .50250 .00375
34 .01000 .62875 .13000
35 .13000 .51125 .12750
36 .13125 .62750 .00250
37 .25250 .50375 .00250
38 .25500 .62750 .13125
39 .37875 .51250 .12875
40 .37750 .62875 .00375
41 .50375 .50250 .00250
42 .50625 .62750 .12750
43 .62750 .51250 .13625
44 .63250 .62875 .00500
45 .75250 .50250 .00250
46 .75375 .62875 .13500
47 .87875 .50500 .12875
48 .88000 .62750 .00375
49 .00250 .75500 .01250
50 .00500 .87750 .13500
51 .13000 .76000 .12750
52 .12875 .87750 .00375
53 .25375 .75375 .00375
54 .25250 .88125 .13500
55 .37750 .75500 .13500
56 .37750 .87750 .00375
57 .50250 .75750 .00875
58 .50375 .88250 .12875
59 .62750 .75500 .12750
60 .62750 .88125 .00500
61 .75375 .75375 .00625
62 .75875 .87875 .12875
63 .88250 .75250 .12750
64 .88625 .87750 .01250
65 .01250 .00500 .23000
66 .00250 .11500 .34125
67 .11500 .00250 .34000
68 .12375 .11500 .22750
69 .23500 .01125 .22875
70 .23250 .12500 .34250
71 .34000 .01000 .34125
72 .34125 .11500 .22875
73 .50250 .00250 .25500
74 .50375 .12750 .37750
75 .62750 .00375 .38000
76 .62875 .12875 .25250
77 .75250 .00250 .25500
78 .75375 .12750 .37875
79 .87875 .00250 .37875
80 .88125 .12875 .25500
81 .00250 .22750 .22750
82 .01125 .34125 .34125
83 .11625 .23000 .34125
84 .11500 .34750 .22750
85 .22750 .23625 .22875
86 .22875 .34125 .34125
87 .34000 .22750 .34125
88 .35000 .34000 .22875
89 .50500 .25375 .25750
90 .51125 .37875 .37750
91 .62750 .25375 .37750
92 .62750 .37875 .25375
93 .75250 .25250 .26000
94 .75375 .37750 .38750
95 .87875 .25375 .38000
96 .88000 .38000 .26000
97 .00250 .50250 .26125
98 .00500 .62875 .37875
99 .12750 .50250 .37750
100 .13000 .62750 .25375
101 .25375 .50750 .25375
102 .25250 .62750 .37875
103 .37750 .50625 .37750
104 .38125 .62875 .25250
105 .50250 .50250 .25375
106 .50250 .62875 .38375
107 .63500 .50250 .37750
108 .62875 .63375 .25375
109 .75250 .50500 .25250
110 .75875 .62750 .37875
111 .87750 .50375 .37875
112 .87750 .63125 .25250
113 .00375 .75375 .25375
114 .00500 .87875 .37875
115 .13375 .75750 .37750
116 .12875 .87875 .26250
117 .25375 .75375 .26250
118 .25375 .88125 .38250
119 .37875 .75250 .37750
120 .37875 .87875 .25250
121 .50250 .75375 .25250
122 .50250 .87875 .37750
123 .62750 .75875 .37875
124 .63500 .87875 .25250
125 .76000 .75375 .25250
126 .76000 .88750 .37875
127 .87750 .75375 .37875
128 .88000 .87875 .25500
129 .00375 .00500 .50500
130 .00625 .12875 .63000
131 .12750 .00250 .62875
132 .12750 .13250 .50500
133 .25250 .00250 .50500
134 .25250 .12875 .62750
135 .37875 .00250 .63000
136 .37750 .12875 .50625
137 .50875 .00375 .51250
138 .50375 .13000 .62875
139 .63000 .00375 .62750
140 .62750 .12750 .50375
141 .75250 .00875 .50500
142 .75750 .12750 .63000
143 .87875 .00250 .63625
144 .87875 .12750 .50250
145 .00250 .25375 .50375
146 .01000 .37750 .62875
147 .12750 .25500 .63125
148 .12875 .37750 .50250
149 .25375 .26250 .50250
150 .25500 .37875 .62875
151 .37750 .25500 .62750
152 .37750 .37750 .50375
153 .50625 .25250 .50750
154 .50750 .37875 .62875
155 .62875 .25250 .63125
156 .63250 .37750 .50375
157 .75625 .25375 .50375
158 .75875 .38000 .62875
159 .87875 .25250 .63000
160 .88000 .37750 .51125
161 .00625 .50375 .50375
162 .00375 .62875 .63250
163 .13000 .50250 .62750
164 .12750 .62750 .50250
165 .25250 .51250 .50375
166 .25750 .62875 .63000
167 .38000 .50375 .62875
168 .37875 .63250 .50750
169 .50250 .50250 .50250
170 .50500 .63750 .62750
171 .63125 .50250 .62875
172 .62875 .62750 .51000
173 .75750 .50500 .50250
174 .75250 .62750 .63000
175 .87875 .50875 .62875
176 .88000 .62750 .50250
177 .00250 .75250 .50375
178 .00375 .87750 .63750
179 .12875 .75250 .62750
180 .12875 .88000 .50250
181 .25375 .75250 .50250
182 .25250 .88375 .62875
183 .37750 .75375 .63750
184 .37750 .88500 .51000
185 .50375 .75250 .50250
186 .50375 .87750 .63000
187 .62875 .75375 .62750
188 .63000 .87875 .50250
189 .75250 .75875 .51125
190 .75625 .87875 .62875
191 .87875 .75500 .62875
192 .87750 .87750 .50375
193 .00375 .00625 .75375
194 .00375 .12750 .87750
195 .12750 .00250 .87875
196 .12875 .12875 .75375
197 .25250 .00250 .75375
198 .25625 .12875 .88625
199 .38625 .01000 .88500
200 .37875 .13750 .75250
201 .50375 .00250 .75500
202 .50250 .13500 .87875
203 .62875 .00625 .87750
204 .62875 .12875 .75250
205 .75250 .00625 .75625
206 .75250 .13125 .87750
207 .87875 .00250 .87875
208 .87875 .12875 .75500
209 .00375 .25375 .76125
210 .00250 .38375 .87750
211 .13125 .25250 .87875
212 .12875 .37875 .75375
213 .25500 .26250 .75500
214 .25625 .38750 .88125
215 .37750 .25250 .87750
216 .37750 .38250 .75375
217 .50250 .25375 .75250
218 .50375 .37750 .87875
219 .63750 .25625 .87750
220 .62875 .37750 .75375
221 .75375 .25375 .75625
222 .76250 .37750 .87875
223 .88000 .25375 .88500
224 .87875 .37875 .75250
225 .00625 .50250 .75375
226 .00250 .62750 .87875
227 .13000 .50375 .87750
228 .12875 .62750 .75250
229 .25375 .50250 .75250
230 .25375 .63125 .87750
231 .38000 .50250 .87875
232 .37875 .62750 .75375
233 .50250 .50250 .75250
234 .50750 .62750 .88500
235 .62875 .50875 .87750
236 .62875 .62750 .75250
237 .75375 .51125 .75500
238 .75500 .62875 .87875
239 .87875 .50375 .87750
240 .87875 .63000 .75250
241 .00250 .75375 .75250
242 .00500 .87875 .87875
243 .12750 .75750 .88125
244 .13000 .87875 .75375
245 .25750 .75375 .76000
246 .25375 .88000 .87750
247 .38625 .75250 .87750
248 .37875 .87750 .75375
249 .50500 .75500 .75250
250 .50375 .87875 .87750
251 .63125 .75375 .88000
252 .63750 .88250 .75250
253 .75500 .75500 .75375
254 .75250 .87875 .88625
255 .87875 .75375 .87750
256 .87750 .87750 .75375
