ITEM: TIMESTEP
1529300
ITEM: NUMBER OF ATOMS
256
ITEM: BOX BOUNDS pp pp pp
0 8.0
0 8.0
0 8.0
ITEM: ATOMS id xs ys zs
2 .00375 .01125 .00500
1 .00250 .11500 .11750
4 .11625 .00375 .11625
3 .11750 .11500 .00500
6 .22750 .00250 .00250
5 .23750 .11500 .11625
8 .34000 .00250 .12250
7 .35000 .11500 .00375
9 .50250 .00250 .00375
10 .50250 .12875 .13250
11 .63625 .01250 .13375
12 .63375 .13000 .00375
13 .75375 .00375 .00750
14 .75250 .12750 .13250
15 .87750 .00250 .13125
16 .88625 .13000 .00250
18 .00250 .22875 .00250
17 .00250 .34125 .11625
20 .11500 .23125 .11750
19 .11750 .34000 .00875
22 .23000 .22750 .00625
21 .22875 .34000 .11625
24 .34000 .23625 .11500
23 .34750 .34000 .00750
25 .50375 .25250 .00250
26 .50250 .38500 .13000
27 .62750 .25250 .12750
28 .62750 .37875 .00250
29 .75375 .25375 .00250
30 .75500 .37750 .13000
31 .88125 .25375 .12875
32 .87750 .37875 .00500
33 .00375 .50250 .00375
34 .00375 .62750 .12750
35 .13000 .50250 .13125
36 .12750 .63125 .00875
37 .26250 .50375 .00500
38 .25375 .63750 .12875
39 .37750 .50375 .12875
40 .37875 .62875 .00500
41 .51125 .50250 .00500
42 .51250 .63000 .12875
43 .63125 .50875 .12875
44 .62750 .62875 .00375
45 .75250 .50625 .00250
46 .75625 .63625 .12875
47 .87750 .51000 .12875
48 .87750 .63250 .00500
49 .01125 .75875 .00250
50 .00250 .88125 .12750
51 .13750 .75250 .13000
52 .12875 .88375 .00250
53 .25500 .75375 .00375
54 .25250 .87875 .12750
55 .38000 .75375 .12750
56 .38250 .87750 .01250
57 .50375 .75250 .00250
58 .50375 .87875 .13125
59 .63000 .75750 .12875
60 .62750 .87875 .01250
61 .75250 .75500 .00250
62 .75250 .87875 .12750
63 .87875 .75250 .12875
64 .87875 .87875 .01250
66 .00250 .00250 .23375
65 .00250 .11500 .34000
68 .11500 .00375 .34125
67 .11500 .11750 .22750
70 .22875 .00250 .22750
69 .22750 .11500 .34000
72 .34250 .00250 .34125
71 .34125 .11625 .23250
73 .50250 .01125 .26250
74 .50250 .12875 .37875
75 .62750 .00500 .38000
76 .63000 .13125 .26000
77 .75500 .00250 .25250
78 .75375 .12750 .37875
79 .87875 .00375 .38500
80 .88250 .13500 .25750
82 .00500 .23625 .23000
81 .00375 .34375 .34000
84 .12250 .22875 .34000
83 .11625 .34125 .23375
86 .22750 .23625 .22750
85 .22875 .34000 .34000
88 .34250 .22875 .34125
87 .34000 .34125 .22875
89 .50375 .25250 .25375
90 .50375 .38000 .37750
91 .62750 .25250 .37750
92 .62875 .37875 .25375
93 .75500 .25375 .25250
94 .75375 .37750 .37750
95 .87875 .25875 .38250
96 .88000 .37750 .25375
97 .00375 .50375 .25250
98 .01000 .62875 .37875
99 .12750 .50375 .37875
100 .12750 .63250 .25250
101 .25250 .50250 .26125
102 .25375 .62750 .37750
103 .37750 .50375 .37875
104 .37750 .62750 .25375
105 .50375 .50250 .25625
106 .51125 .62750 .38000
107 .63625 .50250 .37875
108 .62750 .63000 .25375
109 .75375 .50250 .25250
110 .75500 .62875 .38000
111 .87875 .50500 .37875
112 .87750 .62875 .26000
113 .00250 .75375 .25500
114 .00750 .87875 .37750
115 .12875 .75250 .38000
116 .12750 .87875 .25250
117 .25375 .75250 .25375
118 .25375 .88625 .37875
119 .37875 .75375 .37750
120 .38750 .88625 .26125
121 .50250 .75375 .25375
122 .50250 .87875 .37875
123 .63375 .75500 .38250
124 .62875 .87875 .25375
125 .75250 .75250 .25375
126 .75500 .88375 .37750
127 .87875 .75250 .37750
128 .87750 .88000 .25250
129 .00375 .00500 .51125
130 .00250 .12875 .63000
131 .12875 .00250 .62750
132 .12750 .12750 .50250
133 .25250 .00250 .50250
134 .25250 .12875 .62750
135 .37875 .01000 .63500
136 .38000 .13625 .50375
137 .51125 .00250 .50250
138 .50250 .13000 .62875
139 .62875 .00250 .62750
140 .62750 .13000 .50250
141 .75750 .00375 .50250
142 .75500 .12750 .62750
143 .88750 .00250 .63000
144 .87875 .13750 .50250
145 .00375 .25375 .50250
146 .00375 .37750 .62875
147 .12750 .26000 .62750
148 .13000 .38000 .50250
149 .25250 .26125 .50250
150 .25375 .38625 .63000
151 .38500 .25500 .62750
152 .37875 .37875 .50375
153 .50500 .25500 .50625
154 .50250 .37750 .62750
155 .63625 .25375 .62750
156 .62750 .38250 .50250
157 .75375 .25250 .50375
158 .75375 .37875 .63000
159 .88375 .25875 .63375
160 .88000 .37875 .50250
161 .00375 .50250 .50375
162 .00375 .62750 .63375
163 .12750 .50500 .62875
164 .12875 .62875 .50750
165 .25500 .50250 .50250
166 .25250 .62750 .63250
167 .37750 .50250 .62750
168 .37750 .63000 .50375
169 .50250 .50250 .51250
170 .50875 .62750 .63000
171 .62875 .50375 .62875
172 .63000 .62875 .50375
173 .75250 .50375 .50375
174 .75500 .63000 .62875
175 .87750 .50250 .63125
176 .87750 .63000 .50375
177 .00750 .75500 .50250
178 .00750 .87875 .62750
179 .13000 .75375 .62875
180 .12875 .88625 .50250
181 .25375 .75375 .50250
182 .25375 .88000 .62875
183 .37750 .76000 .62750
184 .37750 .87875 .50375
185 .50375 .75750 .50500
186 .51000 .87875 .63000
187 .63375 .75375 .62750
188 .63125 .88500 .50250
189 .75375 .75250 .50375
190 .76000 .87750 .63625
191 .87750 .75375 .63000
192 .87875 .88625 .50375
193 .01250 .00375 .75375
194 .00375 .12750 .88000
195 .13375 .01000 .88000
196 .12875 .12750 .75250
197 .25250 .00375 .75875
198 .25250 .13375 .87750
199 .37875 .00375 .87750
200 .37750 .12875 .76000
201 .51000 .00250 .75375
202 .50375 .12875 .87875
203 .62750 .00375 .87750
204 .62750 .12875 .76250
205 .75375 .00500 .75625
206 .75250 .12750 .87750
207 .87750 .00250 .88500
208 .88125 .13500 .75250
209 .00250 .25250 .75375
210 .00375 .38250 .88125
211 .12875 .25375 .88000
212 .13375 .37875 .75250
213 .25375 .25500 .75250
214 .25500 .37750 .88750
215 .37750 .25250 .88750
216 .38750 .37750 .76125
217 .50250 .25375 .75250
218 .50250 .37875 .88500
219 .63250 .25375 .87875
220 .62875 .37875 .75375
221 .75250 .25375 .75250
222 .75375 .37875 .88000
223 .87875 .25375 .87750
224 .87750 .38750 .75500
225 .00500 .50250 .75875
226 .00750 .62750 .87875
227 .13625 .51250 .87875
228 .12750 .62750 .75500
229 .25375 .50375 .75250
230 .25375 .62875 .87750
231 .38750 .50250 .87750
232 .37750 .62875 .75750
233 .50375 .50625 .75500
234 .50250 .62875 .87875
235 .62875 .50250 .87875
236 .62875 .62875 .75500
237 .75375 .50625 .75250
238 .76000 .62750 .87750
239 .87875 .50375 .87875
240 .87750 .63375 .75375
241 .00375 .76000 .75375
242 .00375 .87750 .87750
243 .12875 .75250 .87875
244 .12875 .87750 .75500
245 .25250 .75375 .75500
246 .25750 .88250 .87875
247 .38250 .75250 .88500
248 .37750 .88000 .75250
249 .50250 .75375 .76125
250 .50250 .87875 .87875
251 .63000 .75250 .87875
252 .62875 .88375 .75250
253 .75250 .76125 .75375
254 .75250 .87750 .88500
255 .87875 .75625 .87750
256 .87875 .88000 .75250
