ITEM: TIMESTEP
1529320
ITEM: NUMBER OF ATOMS
256
ITEM: BOX BOUNDS pp pp pp
0 8.0
0 8.0
0 8.0
ITEM: ATOMS id xs ys zs
2 .00500 .01000 .00250
1 .00375 .11625 .12125
4 .11500 .01000 .11500
3 .11625 .11500 .00375
6 .23000 .01250 .00250
5 .22875 .12500 .11750
8 .34125 .00625 .11500
7 .34125 .11625 .00250
9 .50375 .00625 .00375
10 .50375 .12875 .12750
11 .62750 .00375 .13000
12 .63375 .12750 .01250
13 .75375 .00375 .00625
14 .75250 .13375 .13375
15 .88625 .00375 .12875
16 .88375 .13750 .00250
18 .00750 .22750 .00250
17 .00375 .34125 .11625
20 .11750 .22750 .11875
19 .11750 .34125 .00500
22 .23250 .22875 .00500
21 .22875 .34875 .12125
24 .34000 .22875 .11875
23 .34125 .34250 .00375
25 .50250 .25250 .00375
26 .50250 .37875 .13000
27 .62750 .25375 .12750
28 .62750 .37750 .00875
29 .75375 .25500 .00250
30 .75625 .38250 .12875
31 .87750 .25250 .13000
32 .87750 .38000 .00375
33 .01000 .51125 .00250
34 .00250 .62750 .12875
35 .12875 .51000 .13625
36 .12875 .62750 .00375
37 .25500 .50250 .00375
38 .25250 .63000 .13500
39 .38125 .50625 .13125
40 .37750 .62875 .00375
41 .50250 .50625 .00375
42 .50375 .62750 .12875
43 .62750 .50500 .12750
44 .63125 .62875 .00500
45 .75625 .50375 .00250
46 .76250 .62750 .12750
47 .87875 .50375 .12875
48 .88000 .62875 .00375
49 .00250 .76125 .00250
50 .00375 .87750 .12875
51 .13125 .75875 .13500
52 .13125 .87750 .00250
53 .25375 .75250 .00625
54 .25375 .87875 .12875
55 .37875 .75375 .13000
56 .38000 .87750 .01000
57 .50250 .75875 .00250
58 .50250 .87875 .12750
59 .63750 .75250 .13625
60 .62750 .87750 .00375
61 .75250 .75250 .00375
62 .75375 .88125 .12875
63 .87875 .75500 .12875
64 .87875 .87750 .00250
66 .00250 .00250 .22750
65 .00750 .11500 .34250
68 .11625 .00375 .34000
67 .11500 .11500 .22750
70 .23000 .00500 .22875
69 .22750 .11500 .34625
72 .34000 .00375 .34125
71 .34125 .12000 .22875
73 .50250 .00375 .25250
74 .50500 .12875 .37875
75 .62875 .00375 .37750
76 .62750 .12750 .25750
77 .75375 .00875 .25375
78 .75250 .12750 .37875
79 .88000 .00375 .37875
80 .87875 .12875 .25375
82 .00250 .22750 .23000
81 .01250 .34000 .35000
84 .12500 .22875 .34000
83 .11750 .34000 .22875
86 .22750 .23125 .22750
85 .22750 .34000 .34125
88 .34125 .22875 .34625
87 .34000 .35000 .23500
89 .50250 .25250 .25250
90 .50250 .37875 .37750
91 .63750 .25375 .37750
92 .62750 .37875 .25375
93 .75375 .25375 .25250
94 .75250 .37750 .37750
95 .88125 .25250 .38125
96 .88125 .38375 .25250
97 .00375 .50250 .25250
98 .00375 .62750 .37750
99 .12750 .50250 .37875
100 .12875 .63750 .25375
101 .25625 .50250 .25250
102 .25250 .63125 .37750
103 .37875 .51250 .37750
104 .37750 .62750 .25625
105 .51000 .50375 .25375
106 .50375 .62875 .37875
107 .62875 .50375 .38125
108 .62750 .63000 .25250
109 .75250 .50375 .25375
110 .75250 .62750 .37750
111 .88500 .50375 .38125
112 .88375 .62750 .25250
113 .00375 .75250 .25250
114 .00250 .87875 .38625
115 .13500 .75250 .38000
116 .12875 .87750 .25375
117 .25250 .75500 .25375
118 .26125 .87875 .37875
119 .37750 .75250 .37875
120 .37875 .88000 .25375
121 .50375 .75500 .26250
122 .50375 .87750 .37875
123 .62875 .75250 .37875
124 .63125 .87875 .25375
125 .75250 .75250 .25375
126 .75500 .87750 .37875
127 .87875 .75250 .38500
128 .87875 .87875 .25500
129 .00250 .00375 .50375
130 .00375 .12750 .62875
131 .13375 .00500 .62875
132 .13000 .13375 .50375
133 .25250 .00500 .50375
134 .25500 .13000 .62875
135 .37750 .01125 .62750
136 .37750 .12875 .50250
137 .50375 .01000 .50375
138 .50625 .12750 .63500
139 .62875 .00250 .62875
140 .63000 .13625 .50250
141 .75375 .01125 .50375
142 .75375 .13500 .62875
143 .87750 .00250 .62750
144 .88000 .12750 .50375
145 .00375 .26250 .50500
146 .00250 .37875 .63500
147 .12875 .25250 .63500
148 .12875 .37750 .50250
149 .25375 .25250 .50375
150 .25250 .38000 .62750
151 .38000 .25375 .62875
152 .38625 .38000 .50500
153 .50250 .25500 .50250
154 .50250 .37875 .63125
155 .62875 .25250 .62875
156 .62875 .38000 .50375
157 .75375 .25375 .50250
158 .75375 .38750 .63125
159 .87875 .25250 .62750
160 .87875 .37875 .50250
161 .00250 .50375 .50375
162 .00500 .62875 .62875
163 .13250 .50250 .62875
164 .13000 .62875 .50375
165 .25250 .50500 .50250
166 .25500 .63000 .63375
167 .37875 .50250 .62875
168 .37875 .62875 .50375
169 .50250 .50250 .50375
170 .50500 .62750 .63500
171 .62750 .50250 .62750
172 .62875 .62750 .50375
173 .75250 .50250 .50375
174 .75375 .62750 .62875
175 .87750 .50625 .62875
176 .87750 .62875 .50250
177 .00250 .75375 .50250
178 .00875 .88000 .62750
179 .12875 .76125 .63250
180 .13625 .87875 .50250
181 .25500 .75250 .50250
182 .25375 .87750 .62750
183 .37875 .75500 .62750
184 .37750 .87750 .50375
185 .50375 .76250 .50500
186 .51000 .87875 .62750
187 .62750 .75375 .62750
188 .63000 .87750 .50375
189 .75250 .75750 .50500
190 .75375 .88750 .63250
191 .88250 .75625 .63000
192 .87875 .88000 .50250
193 .00375 .00375 .75250
194 .00250 .12875 .87750
195 .12750 .00375 .87750
196 .12875 .12875 .75250
197 .25375 .00250 .75750
198 .26000 .12750 .88000
199 .37750 .00250 .88250
200 .37875 .13375 .75250
201 .50375 .00375 .75250
202 .50750 .12875 .88000
203 .62875 .00250 .88000
204 .62750 .12875 .75625
205 .75250 .00250 .75250
206 .75500 .13000 .87875
207 .88000 .00250 .88750
208 .87875 .12750 .75250
209 .00375 .25500 .75375
210 .00250 .38000 .87750
211 .13250 .26250 .87750
212 .13000 .37750 .75250
213 .25250 .25375 .75250
214 .25250 .37750 .87875
215 .37750 .25625 .87875
216 .37875 .38500 .75750
217 .50375 .25625 .75500
218 .50250 .37750 .87750
219 .62750 .26000 .87875
220 .62875 .37750 .75875
221 .75375 .25375 .76250
222 .75250 .38000 .88500
223 .87750 .25250 .88000
224 .88125 .37875 .75875
225 .00375 .51125 .75375
226 .00375 .62875 .87750
227 .12875 .51000 .87750
228 .13375 .62750 .75375
229 .25375 .50375 .75375
230 .25250 .62875 .87875
231 .38250 .50750 .88125
232 .38375 .62750 .76250
233 .50250 .50375 .75625
234 .50375 .63375 .87750
235 .62875 .50250 .87875
236 .63000 .62750 .76250
237 .75250 .50375 .75250
238 .76250 .63500 .87875
239 .87750 .50500 .87750
240 .87875 .63500 .75375
241 .00250 .75375 .75250
242 .00250 .88375 .88625
243 .12750 .76000 .87750
244 .13625 .87875 .75375
245 .25500 .75625 .75375
246 .25250 .88625 .88250
247 .37875 .75250 .87750
248 .37875 .87750 .75375
249 .50875 .75375 .75250
250 .51125 .87750 .87875
251 .62750 .75500 .87875
252 .62875 .87875 .75375
253 .75250 .75500 .75375
254 .75375 .88750 .87875
255 .87875 .75250 .87750
256 .88625 .87750 .75500
