ITEM: TIMESTEP
1528500
ITEM: NUMBER OF ATOMS
256
ITEM: BOX BOUNDS pp pp pp
0 8.0
0 8.0
0 8.0
ITEM: ATOMS id xs ys zs
1 .00500 .00500 .00875
2 .00500 .11500 .11625
3 .11500 .00500 .11625
4 .11625 .11625 .00250
5 .23000 .00250 .00250
6 .22750 .11500 .11625
7 .34000 .00500 .12500
8 .34125 .12250 .00375
9 .51125 .00375 .00375
10 .50375 .12875 .12750
11 .62750 .00500 .12750
12 .63000 .13125 .00375
13 .75250 .00250 .00250
14 .75250 .13000 .12875
15 .87875 .00375 .13125
16 .88625 .12750 .01250
17 .00375 .22875 .00375
18 .00375 .34000 .11500
19 .11500 .23000 .11625
20 .11750 .35000 .00375
21 .22875 .22875 .00250
22 .22875 .34625 .11625
23 .34000 .23375 .11500
24 .34125 .34625 .00250
25 .50250 .25250 .00500
26 .50875 .38000 .12875
27 .63125 .25250 .12875
28 .62750 .38625 .00500
29 .75250 .26250 .01125
30 .75875 .37875 .12875
31 .88125 .25625 .13000
32 .87875 .37750 .00625
33 .01000 .50375 .00250
34 .00375 .62750 .12750
35 .13125 .50625 .12750
36 .12875 .63375 .01000
37 .26125 .50500 .00250
38 .25750 .62750 .12875
39 .37875 .50375 .12875
40 .38000 .62875 .00250
41 .50375 .50375 .00250
42 .50500 .62750 .12875
43 .63250 .50375 .12750
44 .63000 .62750 .00500
45 .75750 .50250 .00250
46 .75250 .62875 .12750
47 .87875 .51000 .12750
48 .87750 .63625 .01250
49 .00375 .76000 .00375
50 .00375 .88000 .12750
51 .13000 .75625 .12875
52 .12875 .87875 .00375
53 .25250 .75250 .01250
54 .26000 .87750 .12875
55 .37750 .75375 .12750
56 .37875 .87875 .00875
57 .50250 .76250 .00250
58 .50375 .87750 .12750
59 .62875 .75375 .13000
60 .62750 .87875 .00375
61 .75375 .75250 .00875
62 .75500 .88625 .12750
63 .88625 .75500 .12750
64 .88375 .87875 .00250
65 .00250 .00250 .22875
66 .01250 .11625 .34000
67 .11625 .00750 .34125
68 .11625 .11625 .23250
69 .22750 .00375 .23000
70 .23750 .11625 .34125
71 .34250 .00250 .34875
72 .34125 .11750 .22875
73 .51000 .00375 .25500
74 .50375 .12750 .38750
75 .63750 .00250 .38125
76 .62875 .12750 .25250
77 .75375 .00375 .25375
78 .75750 .13250 .37750
79 .88375 .00375 .37750
80 .87875 .12875 .25250
81 .00250 .22875 .23750
82 .00250 .34000 .34125
83 .11750 .22875 .34500
84 .11500 .34000 .22750
85 .23375 .22875 .22875
86 .23000 .34000 .34000
87 .34000 .23125 .34125
88 .34000 .34875 .23500
89 .50375 .25375 .25250
90 .50375 .37875 .37750
91 .63000 .25625 .37875
92 .62750 .37875 .25375
93 .75250 .25250 .25625
94 .75875 .37875 .38000
95 .88750 .25375 .37750
96 .87750 .38500 .25500
97 .00375 .51250 .26125
98 .00875 .62875 .37875
99 .12750 .50500 .37875
100 .12875 .62750 .26000
101 .25250 .50875 .25250
102 .25625 .62750 .37875
103 .37750 .50375 .38250
104 .38625 .62750 .25375
105 .50500 .50500 .25375
106 .50625 .62875 .38125
107 .62875 .51125 .37875
108 .62875 .62750 .25500
109 .75375 .51125 .26000
110 .75250 .62875 .37875
111 .87875 .50375 .37750
112 .87875 .62750 .25875
113 .01125 .75375 .25375
114 .00250 .88625 .37750
115 .12875 .75250 .38125
116 .12750 .87875 .25375
117 .26250 .75250 .25375
118 .25375 .87875 .38625
119 .37875 .75250 .37750
120 .38125 .87750 .25375
121 .50625 .75750 .25875
122 .50375 .87750 .38000
123 .62875 .75875 .37750
124 .62750 .88750 .25875
125 .76000 .75875 .25375
126 .75250 .87750 .38000
127 .87750 .75500 .37875
128 .87875 .87875 .26125
129 .00250 .00375 .51125
130 .00250 .12875 .63000
131 .13000 .00250 .63250
132 .13000 .12750 .50375
133 .25750 .00250 .50250
134 .25750 .12750 .63500
135 .38000 .00250 .62750
136 .37750 .13625 .50250
137 .50875 .00250 .50750
138 .50250 .12875 .62750
139 .62875 .00375 .63000
140 .62875 .12875 .50375
141 .75250 .00500 .50875
142 .75375 .12750 .62875
143 .88000 .00625 .63500
144 .87750 .12750 .50500
145 .01250 .25250 .50250
146 .00875 .37875 .63250
147 .12875 .25250 .62750
148 .12750 .38000 .50375
149 .25625 .25500 .50250
150 .25375 .37750 .63000
151 .38000 .25375 .62875
152 .37875 .37875 .50250
153 .50375 .25500 .50375
154 .51250 .37750 .62750
155 .63000 .25500 .63625
156 .63750 .38750 .50750
157 .75500 .25375 .50250
158 .75250 .38125 .62750
159 .87875 .25250 .63000
160 .87875 .37875 .50500
161 .00250 .50500 .50375
162 .00250 .62875 .62875
163 .12875 .50500 .62750
164 .12750 .63125 .50375
165 .25375 .50375 .50375
166 .25250 .62875 .62875
167 .37750 .50500 .63625
168 .37750 .62750 .51125
169 .50750 .50375 .50500
170 .50375 .62875 .62875
171 .62750 .50375 .62875
172 .62875 .62750 .50375
173 .75250 .50625 .50375
174 .75250 .62750 .62750
175 .88250 .50250 .62750
176 .87750 .62750 .50250
177 .00375 .75250 .50625
178 .00250 .87750 .62750
179 .13250 .75250 .62750
180 .12875 .88250 .50250
181 .25250 .75375 .50500
182 .25375 .88000 .63250
183 .38500 .75250 .62875
184 .37875 .88750 .50375
185 .50750 .76250 .50250
186 .50500 .87750 .63125
187 .63625 .75250 .63375
188 .62750 .88000 .50500
189 .75250 .75625 .50250
190 .75250 .87875 .62750
191 .88125 .75625 .63000
192 .87875 .87875 .50375
193 .00250 .01125 .75375
194 .00375 .12750 .88000
195 .12750 .01125 .87875
196 .13750 .12875 .75875
197 .25375 .00375 .75375
198 .25250 .12750 .87875
199 .37875 .00375 .87750
200 .38500 .12750 .76250
201 .50250 .00375 .75500
202 .50250 .13000 .87750
203 .62875 .01000 .88250
204 .62750 .13375 .75500
205 .75375 .01000 .76000
206 .76250 .12875 .87875
207 .87875 .00375 .87750
208 .88000 .12750 .75375
209 .00375 .25250 .75375
210 .00625 .38250 .87750
211 .12875 .25375 .87875
212 .12875 .37875 .75375
213 .25250 .25750 .75250
214 .25250 .37875 .87875
215 .37875 .25500 .88250
216 .37875 .37875 .76250
217 .50375 .25500 .75375
218 .50250 .38375 .87875
219 .62750 .25750 .87750
220 .63250 .38000 .75250
221 .75375 .25375 .75250
222 .75250 .37875 .87750
223 .87875 .25500 .87875
224 .87875 .37750 .75250
225 .00250 .51250 .75375
226 .00250 .62875 .87875
227 .13625 .50500 .87875
228 .12875 .63375 .75250
229 .25375 .50250 .75375
230 .25250 .63000 .88000
231 .37875 .50250 .88250
232 .37750 .62750 .75375
233 .50250 .50375 .75250
234 .51000 .63000 .88125
235 .62875 .50250 .88625
236 .63500 .63250 .75500
237 .75250 .50250 .75875
238 .75375 .62875 .87875
239 .87750 .50375 .87750
240 .87750 .63000 .75375
241 .00500 .75375 .75375
242 .00500 .87875 .87875
243 .12750 .75875 .87875
244 .12750 .87875 .76125
245 .25500 .75250 .75250
246 .25375 .87750 .88375
247 .37875 .75375 .87750
248 .38125 .88750 .75250
249 .50500 .75375 .75500
250 .50750 .87750 .87750
251 .62875 .75250 .87875
252 .62750 .87750 .75375
253 .75250 .75250 .76125
254 .75250 .88625 .88000
255 .87750 .75750 .88000
256 .87750 .87750 .75375
