ITEM: TIMESTEP
1528280
ITEM: NUMBER OF ATOMS
256
ITEM: BOX BOUNDS pp pp pp
0 8.0
0 8.0
0 8.0
ITEM: ATOMS id xs ys zs
1 .00250 .00250 .00375
2 .00375 .11625 .11625
3 .11750 .00500 .11500
4 .11625 .11500 .00250
5 .22875 .00500 .00250
6 .22875 .11500 .12500
7 .34250 .00250 .11875
8 .34125 .12000 .00500
9 .51000 .00250 .00375
10 .50750 .12875 .12875
11 .63750 .00375 .13000
12 .62750 .12875 .00250
13 .75500 .00375 .00375
14 .75250 .12875 .13000
15 .88000 .00250 .13000
16 .87750 .12875 .00375
17 .00375 .23000 .00250
18 .00375 .34000 .12250
19 .12250 .23500 .12250
20 .11500 .34000 .00250
21 .22875 .23375 .00750
22 .22875 .34125 .11625
23 .35000 .22750 .11500
24 .34250 .34750 .00375
25 .50625 .25250 .00375
26 .50375 .38000 .12875
27 .62750 .26125 .12875
28 .62750 .37750 .00500
29 .76125 .25500 .00500
30 .75625 .37875 .13750
31 .88375 .25500 .12750
32 .88125 .38000 .00500
33 .00250 .50500 .00250
34 .00875 .63375 .12875
35 .12750 .51250 .12875
36 .12750 .63375 .00375
37 .25500 .50500 .00750
38 .25250 .62875 .13125
39 .38625 .50375 .12750
40 .37750 .63750 .00250
41 .50250 .50250 .00250
42 .50250 .62750 .12750
43 .62875 .50375 .12750
44 .63000 .63625 .00250
45 .75375 .50750 .00500
46 .75375 .63500 .13125
47 .87875 .50500 .12750
48 .87750 .63500 .00250
49 .00375 .75375 .00250
50 .00250 .87875 .12750
51 .13750 .75375 .12750
52 .13625 .87875 .00625
53 .25750 .75375 .00375
54 .25250 .87750 .12875
55 .37875 .75250 .12875
56 .38000 .88625 .00250
57 .50625 .76125 .00875
58 .50250 .87750 .12875
59 .62875 .75250 .12875
60 .63000 .88000 .00875
61 .75375 .76000 .00250
62 .75500 .87875 .12750
63 .87875 .75250 .12875
64 .87750 .87875 .00500
65 .00375 .00625 .22875
66 .00250 .11500 .34250
67 .11625 .00875 .34375
68 .11500 .11500 .22750
69 .22875 .00375 .22875
70 .22875 .11625 .34250
71 .34250 .00375 .34750
72 .34000 .11500 .22750
73 .50500 .00250 .25250
74 .51250 .13000 .37750
75 .63250 .00375 .37750
76 .63750 .12750 .25375
77 .75375 .00500 .25375
78 .75250 .13375 .37875
79 .87875 .00375 .37875
80 .88000 .12875 .25375
81 .00375 .22750 .22750
82 .00250 .34125 .34125
83 .11500 .22750 .34750
84 .12250 .34125 .22875
85 .23250 .22750 .23000
86 .22750 .34500 .34125
87 .34500 .22750 .34000
88 .34000 .34875 .22875
89 .50375 .25375 .25250
90 .50250 .38125 .37875
91 .62875 .25250 .37750
92 .63500 .37875 .25250
93 .75500 .25375 .25250
94 .75375 .38375 .37875
95 .87750 .25500 .37750
96 .87875 .38000 .25375
97 .00250 .51000 .25375
98 .00250 .62750 .38000
99 .12875 .50250 .37875
100 .12875 .62750 .25250
101 .25250 .50500 .25375
102 .25375 .62750 .38125
103 .37750 .50250 .38000
104 .37875 .62750 .25500
105 .50375 .50500 .26250
106 .50375 .63000 .37750
107 .62875 .50375 .37875
108 .63000 .62750 .26000
109 .76000 .50250 .25250
110 .75500 .62750 .38625
111 .87875 .51250 .37750
112 .87750 .62750 .25500
113 .00500 .75250 .25375
114 .00375 .88000 .38000
115 .12875 .76250 .37750
116 .13500 .87875 .25500
117 .25375 .75375 .25375
118 .26250 .87750 .37875
119 .38500 .75375 .37875
120 .37875 .87875 .25250
121 .50375 .76125 .25250
122 .50500 .87875 .38000
123 .63625 .75375 .37875
124 .63000 .87875 .25375
125 .75375 .75375 .25250
126 .76000 .87875 .37750
127 .87750 .75250 .37750
128 .88000 .87750 .25375
129 .00500 .00250 .50375
130 .01250 .12875 .62875
131 .12750 .00250 .62875
132 .12875 .12750 .50375
133 .25250 .00750 .50375
134 .25250 .12750 .62875
135 .37875 .00250 .63375
136 .37750 .12750 .50375
137 .50250 .00500 .50375
138 .50500 .12875 .62750
139 .62750 .00375 .62750
140 .63125 .12750 .51000
141 .76125 .00375 .50375
142 .75375 .13625 .62875
143 .87875 .00375 .62875
144 .88000 .13125 .50250
145 .00250 .25250 .50500
146 .01250 .37875 .63750
147 .13250 .25250 .62875
148 .12875 .37750 .50250
149 .25375 .25375 .50500
150 .25250 .37875 .62875
151 .37750 .26000 .62750
152 .38500 .37750 .50250
153 .50250 .25375 .50250
154 .50250 .37875 .62750
155 .62875 .25375 .62875
156 .62750 .37875 .51125
157 .75375 .25250 .50250
158 .75500 .38000 .62875
159 .87750 .25250 .62750
160 .87875 .38500 .50250
161 .00375 .50250 .50375
162 .00500 .62750 .63625
163 .13250 .50375 .62875
164 .12875 .63500 .50250
165 .25500 .50250 .50250
166 .25250 .62750 .63500
167 .37875 .50375 .63750
168 .37750 .62750 .50250
169 .50375 .50250 .51125
170 .50500 .62750 .63000
171 .62750 .51250 .62875
172 .62750 .62875 .50250
173 .75375 .50375 .50375
174 .75375 .62875 .62875
175 .87750 .50375 .62750
176 .87875 .62750 .50375
177 .00250 .75375 .50250
178 .00625 .87750 .62750
179 .12750 .75250 .62875
180 .12750 .87750 .50375
181 .25250 .75625 .50375
182 .25375 .87750 .62875
183 .37875 .75250 .62875
184 .37875 .87750 .50375
185 .50250 .75500 .50250
186 .51000 .87875 .63000
187 .62875 .75625 .62750
188 .62750 .87750 .50250
189 .75375 .75250 .50375
190 .75750 .88000 .62875
191 .87875 .75375 .62750
192 .87875 .87875 .50250
193 .00250 .00250 .75250
194 .00375 .12750 .87875
195 .12750 .01125 .87750
196 .12875 .12875 .75375
197 .25375 .00875 .75250
198 .25250 .12875 .88000
199 .38000 .01250 .87875
200 .38000 .12750 .75625
201 .50250 .00500 .75250
202 .50250 .13375 .87750
203 .63750 .00250 .87750
204 .63250 .12750 .75375
205 .75375 .01000 .75250
206 .75375 .12750 .87750
207 .87875 .00250 .87750
208 .87750 .13625 .75375
209 .00875 .25250 .75375
210 .00375 .37750 .88000
211 .12875 .26250 .88500
212 .13625 .37875 .75375
213 .25250 .25500 .76125
214 .25250 .37750 .87750
215 .38000 .25750 .87750
216 .37875 .37875 .75500
217 .50375 .25250 .75250
218 .50500 .37875 .87875
219 .63500 .25625 .87750
220 .63125 .37875 .75250
221 .75250 .25500 .75250
222 .75500 .37875 .87875
223 .87750 .25500 .87750
224 .87875 .38125 .75875
225 .00250 .50375 .75250
226 .01250 .63125 .87875
227 .13375 .50375 .87750
228 .12750 .63000 .75375
229 .25250 .50375 .75250
230 .26000 .63125 .87875
231 .37750 .50375 .88250
232 .37875 .62750 .75375
233 .50500 .50750 .76250
234 .50375 .62875 .87750
235 .62750 .50250 .87875
236 .62750 .62750 .75250
237 .75250 .50375 .75250
238 .75250 .62750 .88125
239 .88000 .50375 .87750
240 .88750 .62875 .75375
241 .00375 .75750 .75250
242 .00375 .87875 .88750
243 .12750 .76000 .87875
244 .12750 .88125 .75375
245 .25875 .75250 .75375
246 .25375 .87875 .87750
247 .37875 .75750 .87875
248 .37750 .88375 .75500
249 .50250 .75375 .75375
250 .50250 .87750 .87875
251 .62750 .75250 .87750
252 .62750 .87875 .75500
253 .75250 .75375 .75625
254 .75250 .87875 .87750
255 .88500 .75375 .87875
256 .87750 .87750 .75375
