ITEM: TIMESTEP
1529380
ITEM: NUMBER OF ATOMS
256
ITEM: BOX BOUNDS pp pp pp
0 8.0
0 8.0
0 8.0
ITEM: ATOMS id xs ys zs
2 .00375 .00375 .00375
1 .00375 .11625 .11625
4 .11625 .00500 .11625
3 .11625 .11750 .00375
6 .22875 .00875 .00750
5 .23000 .12000 .11500
8 .35000 .00375 .11625
7 .34000 .12375 .00250
9 .51250 .00375 .00250
10 .50250 .13125 .13000
11 .63000 .01125 .12875
12 .62875 .12875 .00250
13 .75375 .01250 .01250
14 .75375 .13375 .12875
15 .87750 .00375 .13500
16 .87750 .12875 .01000
18 .00250 .22750 .00250
17 .00375 .34000 .12375
20 .11625 .22750 .11500
19 .11500 .34125 .00500
22 .22750 .23625 .00500
21 .22875 .34000 .11750
24 .34125 .22875 .11500
23 .34125 .34250 .00375
25 .50750 .26250 .00250
26 .50750 .37875 .12875
27 .63750 .25500 .12750
28 .62750 .37750 .00250
29 .75375 .25250 .00500
30 .75625 .37875 .12750
31 .87875 .25250 .13000
32 .87750 .37875 .00375
33 .00375 .50375 .00250
34 .00375 .62875 .12875
35 .12875 .51000 .12750
36 .12875 .63000 .00250
37 .25500 .50750 .00250
38 .25500 .62750 .12875
39 .37750 .50875 .12875
40 .37875 .62875 .00250
41 .50375 .50250 .01250
42 .50250 .63250 .12750
43 .62750 .50250 .13000
44 .62875 .63375 .00375
45 .75375 .50250 .00375
46 .76250 .62875 .12750
47 .87875 .51000 .13625
48 .88625 .63750 .00375
49 .00250 .75375 .00500
50 .00500 .87875 .12750
51 .13000 .75250 .12750
52 .13500 .88375 .00500
53 .25250 .75500 .00750
54 .25250 .87750 .12750
55 .37750 .75250 .13125
56 .38000 .88250 .00750
57 .50500 .75250 .00250
58 .50875 .88000 .12875
59 .62875 .75500 .12750
60 .63625 .87750 .00250
61 .75875 .75250 .00250
62 .75250 .87750 .12875
63 .87750 .75250 .12750
64 .87875 .88750 .00375
66 .00375 .01250 .22750
65 .00250 .12000 .34000
68 .11625 .01250 .34125
67 .11750 .11625 .22875
70 .22750 .00875 .22875
69 .23625 .11500 .34250
72 .34125 .00375 .34000
71 .34000 .11500 .22875
73 .51000 .00750 .25500
74 .50250 .12875 .37750
75 .62875 .00375 .38000
76 .63750 .13125 .25250
77 .75375 .00500 .26250
78 .75375 .12750 .37875
79 .88500 .00375 .37750
80 .87875 .12750 .25375
82 .00250 .23000 .22875
81 .00250 .34750 .34000
84 .12125 .22750 .34000
83 .11625 .34250 .22750
86 .22750 .22875 .22750
85 .22875 .35000 .34250
88 .34125 .22875 .34500
87 .34250 .34250 .22875
89 .50250 .26125 .26250
90 .50250 .38375 .37875
91 .62875 .25250 .37875
92 .62750 .37875 .25250
93 .76125 .25375 .25375
94 .75250 .38125 .38250
95 .87750 .25750 .38625
96 .87750 .37875 .25375
97 .00375 .50625 .25375
98 .00375 .62750 .37875
99 .12875 .50375 .37750
100 .13625 .62875 .25250
101 .25375 .50375 .25250
102 .25875 .63000 .38000
103 .38625 .50375 .37875
104 .38750 .63125 .25375
105 .50250 .50250 .25750
106 .50375 .63000 .37875
107 .63625 .50375 .37875
108 .62875 .62875 .25375
109 .75500 .51000 .25375
110 .75875 .62750 .38125
111 .87750 .50375 .37875
112 .87875 .62875 .25375
113 .00375 .75500 .25625
114 .00500 .87750 .37750
115 .12875 .75375 .37750
116 .12875 .87875 .25375
117 .25375 .75250 .25375
118 .26000 .87875 .37875
119 .37750 .75375 .37750
120 .37750 .87875 .25875
121 .50375 .75250 .25250
122 .50250 .88000 .37750
123 .62875 .75375 .37750
124 .62750 .87875 .25375
125 .75750 .75250 .25250
126 .75375 .87750 .37750
127 .87750 .76125 .37875
128 .87875 .88250 .25500
129 .00375 .00375 .50375
130 .00375 .12875 .62750
131 .12875 .00250 .62750
132 .13375 .13000 .51125
133 .25875 .01250 .50500
134 .25375 .13000 .62875
135 .37875 .00500 .62875
136 .38500 .12750 .50750
137 .50625 .00250 .51125
138 .50375 .12750 .63000
139 .62750 .00250 .62750
140 .62750 .12875 .50500
141 .75625 .00250 .50375
142 .75250 .13500 .62875
143 .87875 .00500 .62875
144 .88000 .12750 .51125
145 .00250 .25500 .50250
146 .00375 .37750 .63000
147 .12875 .25250 .63750
148 .13000 .37750 .50250
149 .25250 .26000 .50500
150 .25250 .37875 .62750
151 .37875 .25375 .62875
152 .38000 .37875 .50375
153 .50250 .25750 .50625
154 .50375 .37875 .62875
155 .62750 .26125 .62875
156 .63000 .37875 .50250
157 .75625 .25375 .50250
158 .75250 .38250 .62875
159 .87750 .26250 .63750
160 .87750 .37750 .50375
161 .00375 .50375 .50375
162 .00375 .62750 .63000
163 .13250 .50250 .62875
164 .12750 .63250 .50375
165 .25375 .50250 .50250
166 .25375 .63000 .62875
167 .37875 .51125 .62875
168 .38250 .62875 .51125
169 .50500 .50375 .50625
170 .50250 .62875 .62750
171 .63000 .51250 .62750
172 .62875 .63000 .50375
173 .76000 .50375 .50250
174 .75375 .62875 .62750
175 .87875 .50250 .62750
176 .88000 .62875 .50375
177 .00625 .76250 .50625
178 .00875 .87750 .63500
179 .12875 .75375 .62875
180 .12750 .88625 .50375
181 .26125 .75375 .50250
182 .25500 .87750 .62750
183 .37875 .75250 .62875
184 .37875 .88000 .50375
185 .50500 .75500 .50500
186 .50375 .87875 .62750
187 .63500 .75375 .62875
188 .62875 .88000 .50250
189 .75250 .75250 .50375
190 .75375 .88375 .62875
191 .87750 .76125 .62750
192 .87875 .87750 .50500
193 .00250 .00375 .75375
194 .00500 .12750 .88250
195 .13250 .00500 .87750
196 .13750 .12875 .75250
197 .25500 .01000 .75250
198 .25250 .12875 .87875
199 .37750 .00375 .88375
200 .37875 .13375 .75500
201 .50625 .00875 .75500
202 .51125 .12875 .87750
203 .62875 .00375 .87875
204 .63125 .12750 .75375
205 .75250 .00375 .75750
206 .76125 .12875 .87750
207 .87875 .00500 .87750
208 .88750 .12875 .75375
209 .00750 .25625 .75500
210 .00375 .37750 .88000
211 .12750 .25375 .87875
212 .12750 .37750 .75250
213 .26125 .26250 .75375
214 .25250 .37750 .87750
215 .38000 .25875 .87750
216 .37750 .38500 .75250
217 .50250 .25250 .75375
218 .50375 .38750 .87875
219 .63375 .25250 .87875
220 .62750 .37875 .75250
221 .75250 .25250 .75875
222 .75375 .37875 .87750
223 .88000 .25875 .87875
224 .87875 .38250 .76250
225 .00250 .50375 .75500
226 .01000 .62750 .87750
227 .12875 .51125 .87750
228 .12750 .62875 .75250
229 .25250 .50875 .75750
230 .26125 .62875 .87875
231 .37875 .51250 .88000
232 .37875 .63375 .75250
233 .50500 .50250 .75250
234 .50875 .63000 .88250
235 .62750 .50375 .88625
236 .62875 .62750 .75375
237 .75625 .50250 .75250
238 .75375 .62750 .88000
239 .88250 .50375 .87750
240 .88000 .63500 .75250
241 .00375 .75250 .75250
242 .00500 .87875 .87750
243 .13500 .75375 .87875
244 .13250 .87750 .76000
245 .25500 .76000 .75750
246 .25625 .87750 .87750
247 .37875 .75250 .87750
248 .37875 .87875 .75750
249 .51000 .75250 .75750
250 .50500 .87750 .87750
251 .62875 .75250 .87875
252 .62875 .87750 .75250
253 .75375 .75500 .75250
254 .75500 .87875 .88250
255 .88750 .75500 .88000
256 .88500 .87875 .75375
