ITEM: TIMESTEP
1530040
ITEM: NUMBER OF ATOMS
256
ITEM: BOX BOUNDS pp pp pp
0 8.0
0 8.0
0 8.0
ITEM: ATOMS id xs ys zs
2 .00500 .00375 .01125
1 .00625 .11500 .11500
4 .11625 .00250 .11500
3 .11500 .11625 .00250
6 .22750 .00250 .00375
5 .22750 .11500 .11625
8 .34000 .00250 .11625
7 .34125 .11625 .00250
9 .50375 .01000 .00375
10 .50375 .13375 .12750
11 .63625 .00750 .12875
12 .62875 .12750 .00250
13 .75625 .00250 .00375
14 .75250 .12875 .12750
15 .87875 .00375 .12875
16 .87875 .13000 .01125
18 .00500 .23000 .00375
17 .00375 .34000 .11500
20 .11500 .22750 .12250
19 .11750 .34625 .00250
22 .22875 .23500 .00250
21 .22875 .34000 .12375
24 .34250 .23750 .12375
23 .34000 .34250 .01000
25 .50750 .25750 .00375
26 .50250 .38250 .13375
27 .62875 .25500 .12875
28 .62750 .37875 .00250
29 .75250 .25375 .00375
30 .75375 .37750 .12875
31 .87875 .25375 .12875
32 .88750 .37750 .00375
33 .00375 .50250 .01250
34 .00625 .62875 .12875
35 .12750 .51125 .12875
36 .12875 .63125 .00250
37 .25375 .50500 .00375
38 .25250 .63000 .13125
39 .37750 .50250 .12750
40 .37875 .62750 .00500
41 .50250 .50250 .00375
42 .50375 .62750 .13250
43 .62750 .51125 .12750
44 .63000 .62750 .01250
45 .76125 .50250 .00375
46 .75500 .62875 .12750
47 .87875 .50375 .12875
48 .87750 .62750 .00375
49 .00375 .75500 .00500
50 .00375 .87750 .12875
51 .12750 .75375 .13000
52 .12875 .87750 .00875
53 .26000 .75250 .00250
54 .26250 .88000 .12750
55 .38000 .75375 .12875
56 .38000 .87750 .00250
57 .50500 .75250 .00375
58 .50375 .88500 .12750
59 .62750 .75250 .12750
60 .62875 .87750 .00375
61 .75500 .75375 .00250
62 .75250 .87875 .12750
63 .87750 .75375 .12750
64 .88000 .88625 .00750
66 .00500 .00375 .23750
65 .00750 .11500 .34000
68 .11625 .00500 .34875
67 .11625 .11625 .23750
70 .22750 .00375 .22875
69 .22875 .11625 .35000
72 .34000 .00750 .34000
71 .34000 .11625 .23500
73 .50500 .00750 .25250
74 .50500 .12875 .37875
75 .62750 .00250 .37750
76 .62750 .12875 .25375
77 .75250 .00875 .25500
78 .75375 .13250 .37750
79 .88125 .00375 .38500
80 .88375 .12875 .25250
82 .00375 .22750 .22875
81 .00375 .34125 .34000
84 .11500 .23250 .34000
83 .12000 .34000 .22875
86 .22750 .22875 .23750
85 .23750 .34000 .34000
88 .34000 .22875 .34625
87 .34250 .34250 .23750
89 .50375 .25375 .25375
90 .50250 .37875 .37750
91 .62875 .26250 .37875
92 .63000 .37750 .26000
93 .76125 .25500 .25500
94 .75375 .38250 .37875
95 .88500 .25375 .37875
96 .87875 .37875 .25250
97 .00375 .50375 .25375
98 .00375 .63750 .37875
99 .12750 .50375 .38500
100 .12750 .63500 .25750
101 .25250 .50875 .25250
102 .25875 .62875 .38750
103 .37875 .50250 .37875
104 .38500 .62875 .25500
105 .51000 .50250 .25250
106 .50375 .63750 .37875
107 .62750 .50375 .37750
108 .62875 .62750 .25250
109 .75250 .50375 .25250
110 .75250 .62875 .38250
111 .87750 .51125 .37875
112 .88000 .62875 .25375
113 .00375 .76250 .25375
114 .00375 .87875 .37750
115 .12875 .75375 .38000
116 .13250 .87875 .25375
117 .25375 .75375 .25250
118 .25500 .87750 .38250
119 .38625 .75500 .37875
120 .37750 .88250 .25250
121 .50375 .75250 .25375
122 .51000 .87750 .37750
123 .62750 .75375 .37750
124 .62875 .88000 .25375
125 .75250 .76250 .25250
126 .75375 .88000 .37875
127 .87875 .75250 .37875
128 .87875 .88500 .25250
129 .00250 .00250 .50250
130 .00625 .12875 .63250
131 .12750 .00625 .63375
132 .12875 .13250 .50375
133 .25250 .00375 .50625
134 .25625 .12875 .62750
135 .37750 .00500 .63000
136 .37750 .12750 .50250
137 .50250 .00500 .50375
138 .50375 .13000 .62875
139 .62750 .00250 .62750
140 .63750 .13750 .50375
141 .75375 .00375 .50250
142 .75375 .12875 .62750
143 .88625 .00250 .62875
144 .87750 .12875 .50375
145 .00500 .25375 .50250
146 .00250 .37750 .63625
147 .12875 .25375 .63500
148 .13375 .37875 .50375
149 .25375 .25250 .50250
150 .26125 .38750 .62875
151 .37750 .25250 .62750
152 .38000 .38500 .50250
153 .50375 .25375 .51250
154 .50625 .37750 .62750
155 .63625 .25250 .62875
156 .62750 .37875 .50500
157 .76125 .25250 .50250
158 .75250 .38375 .63250
159 .87750 .25375 .62750
160 .87875 .38500 .50250
161 .00500 .50250 .50375
162 .00500 .62875 .62750
163 .12750 .50250 .63375
164 .12750 .63125 .50375
165 .25375 .50500 .50250
166 .25375 .62875 .63250
167 .38750 .50250 .62750
168 .37875 .62875 .50375
169 .50500 .50375 .50375
170 .50250 .62875 .63000
171 .62875 .50250 .63000
172 .63625 .62750 .50375
173 .75625 .51125 .50375
174 .75250 .62875 .63000
175 .87750 .50250 .62750
176 .87750 .62875 .50250
177 .00750 .76250 .50375
178 .00375 .87750 .62750
179 .12875 .75500 .62875
180 .13250 .88375 .50375
181 .25625 .76000 .51250
182 .25500 .88750 .62875
183 .37750 .75250 .63375
184 .38000 .87750 .50250
185 .50250 .75250 .50375
186 .50250 .87750 .62750
187 .62875 .75250 .63250
188 .63625 .87750 .50250
189 .75250 .75375 .50500
190 .75250 .87750 .62750
191 .87750 .75250 .62750
192 .87750 .87875 .50250
193 .00250 .00250 .75500
194 .00375 .12875 .87750
195 .12750 .00750 .87750
196 .13000 .12750 .75250
197 .26250 .00750 .75375
198 .25375 .12875 .87875
199 .37750 .00375 .88250
200 .37750 .12750 .75500
201 .50750 .00500 .75375
202 .50375 .12875 .87875
203 .62875 .00375 .87875
204 .63250 .13625 .75500
205 .75375 .00250 .75750
206 .75375 .12875 .87875
207 .88000 .00500 .87875
208 .87875 .12875 .75750
209 .00250 .25250 .75625
210 .00375 .38375 .87875
211 .12750 .25250 .87875
212 .12875 .37875 .75375
213 .25250 .25500 .75250
214 .25625 .37750 .87750
215 .37875 .25250 .87750
216 .37875 .38000 .75250
217 .50250 .25250 .75500
218 .50625 .37750 .87750
219 .62875 .25625 .88375
220 .62875 .37875 .75250
221 .75875 .25375 .75250
222 .75250 .37875 .88500
223 .88125 .25500 .88750
224 .87750 .37875 .75375
225 .01250 .50500 .76000
226 .00375 .62750 .87750
227 .12750 .50625 .87875
228 .13500 .62750 .75250
229 .25375 .50500 .75375
230 .25250 .62750 .87750
231 .38375 .51250 .87750
232 .37875 .63000 .75250
233 .50375 .50625 .75250
234 .50375 .62750 .88000
235 .62875 .51000 .88375
236 .63125 .62875 .75375
237 .75250 .50375 .76250
238 .75250 .62875 .87750
239 .88375 .50750 .87875
240 .87750 .62875 .75250
241 .00250 .75250 .75375
242 .00250 .87875 .88375
243 .13250 .75375 .88250
244 .12875 .87750 .75500
245 .25375 .75375 .75375
246 .25250 .87750 .87875
247 .38000 .75625 .87875
248 .37750 .87750 .75500
249 .50375 .75500 .75625
250 .50500 .87875 .88625
251 .62875 .75875 .87750
252 .62750 .87875 .75375
253 .75500 .76000 .76000
254 .75875 .88500 .87750
255 .87875 .75250 .87750
256 .87750 .87750 .75375
