ITEM: TIMESTEP
1529000
ITEM: NUMBER OF ATOMS
256
ITEM: BOX BOUNDS pp pp pp
0 8.0
0 8.0
0 8.0
ITEM: ATOMS id xs ys zs
1 .00375 .00875 .00250
2 .00375 .11625 .12000
3 .11750 .00375 .11500
4 .11500 .11500 .00250
5 .22875 .00250 .00250
6 .22750 .12000 .11500
7 .34875 .00375 .11625
8 .34125 .12250 .00250
9 .50625 .00375 .00250
10 .50250 .13000 .13625
11 .62875 .00500 .13750
12 .62875 .12875 .01250
13 .75250 .00375 .01125
14 .76125 .12750 .13000
15 .87750 .00375 .12750
16 .87750 .13125 .00250
17 .00375 .23375 .00250
18 .01125 .35000 .11625
19 .11500 .22750 .11500
20 .11500 .34125 .00375
21 .23625 .23125 .00375
22 .22875 .34000 .11500
23 .34125 .22750 .11625
24 .34125 .34000 .00250
25 .50875 .25250 .00375
26 .50375 .37875 .12875
27 .62875 .25375 .12750
28 .62875 .37750 .00375
29 .75375 .25375 .00250
30 .75375 .37875 .12875
31 .87875 .25250 .12875
32 .88750 .37875 .00250
33 .00250 .51000 .00375
34 .00375 .62750 .12875
35 .12750 .50250 .12750
36 .12875 .63000 .00250
37 .25250 .50500 .00500
38 .25375 .63625 .12875
39 .38000 .51250 .12875
40 .37875 .62750 .00375
41 .50875 .50250 .00375
42 .50250 .63000 .12750
43 .62750 .50375 .13750
44 .62875 .62750 .00500
45 .75375 .50250 .00375
46 .76125 .62875 .12875
47 .88000 .50375 .12750
48 .87875 .63250 .01000
49 .00375 .75375 .00250
50 .00250 .87875 .12750
51 .12875 .76250 .12875
52 .12750 .87750 .00500
53 .25375 .75250 .00250
54 .25500 .87750 .13375
55 .37750 .75375 .12875
56 .38625 .88750 .01125
57 .50250 .75375 .00375
58 .50375 .87750 .12875
59 .62750 .76000 .12750
60 .63750 .88125 .00750
61 .76125 .75250 .00250
62 .76000 .87750 .12875
63 .87875 .75250 .13000
64 .87875 .88000 .00500
65 .00250 .00250 .22750
66 .00875 .11500 .34000
67 .11500 .01000 .35000
68 .11625 .11750 .23250
69 .22750 .00375 .23000
70 .22875 .11875 .34125
71 .34125 .00375 .34125
72 .34000 .12375 .22875
73 .50375 .00750 .25375
74 .50375 .12750 .38125
75 .62875 .00250 .38000
76 .62875 .13375 .25500
77 .75375 .00250 .25375
78 .75250 .12750 .37875
79 .87875 .00250 .37750
80 .87750 .13000 .25375
81 .00375 .22875 .22750
82 .00250 .34750 .34000
83 .11500 .22750 .34000
84 .11750 .34125 .22875
85 .23000 .22750 .22875
86 .22750 .34000 .34750
87 .34000 .22875 .34000
88 .34750 .34000 .23375
89 .50500 .25375 .25375
90 .51000 .38000 .37875
91 .62750 .25250 .37875
92 .63000 .37875 .25250
93 .75250 .25500 .25375
94 .76125 .37875 .37750
95 .87750 .25375 .37875
96 .87875 .38000 .26125
97 .00375 .50250 .25375
98 .00250 .63125 .38625
99 .13125 .50250 .37875
100 .12875 .62875 .26000
101 .25375 .51125 .25250
102 .25500 .62875 .37875
103 .38125 .50250 .38000
104 .38000 .62750 .25375
105 .50250 .50250 .25250
106 .50250 .62750 .37750
107 .63250 .50750 .37875
108 .63500 .62875 .25250
109 .75250 .50375 .25625
110 .75375 .63250 .37875
111 .87750 .50500 .37750
112 .87875 .63625 .25500
113 .00375 .75500 .25375
114 .00750 .88000 .37750
115 .12750 .75375 .37875
116 .12750 .88750 .25375
117 .25250 .76000 .25250
118 .25250 .87750 .37875
119 .38000 .75375 .37875
120 .38000 .87875 .26125
121 .50500 .75375 .25250
122 .50250 .87750 .37750
123 .62875 .76000 .38000
124 .62750 .88375 .25250
125 .75375 .75375 .25375
126 .75625 .87750 .37875
127 .87750 .75375 .38000
128 .87750 .87875 .25250
129 .00250 .00875 .50375
130 .00250 .12750 .62875
131 .12750 .00375 .62875
132 .12750 .12750 .50250
133 .25250 .00250 .50375
134 .25375 .13000 .63250
135 .37875 .00375 .63000
136 .38125 .12875 .50625
137 .50250 .00375 .50250
138 .50375 .12875 .63500
139 .63750 .00375 .63000
140 .62750 .12750 .50375
141 .75250 .00375 .50750
142 .75375 .13250 .62875
143 .87875 .00250 .62875
144 .87750 .12875 .50250
145 .00375 .25250 .50250
146 .00875 .38000 .63000
147 .13750 .25375 .63250
148 .12875 .37875 .50375
149 .25250 .25250 .50250
150 .25750 .37875 .63125
151 .38000 .25375 .62875
152 .38375 .37750 .50500
153 .50375 .25375 .51250
154 .50250 .37875 .62750
155 .63500 .25250 .63000
156 .62750 .38000 .50375
157 .76250 .25500 .50375
158 .75375 .37750 .62875
159 .87750 .25250 .62875
160 .87875 .37875 .50250
161 .00750 .50750 .50375
162 .00500 .62750 .63000
163 .12875 .50250 .62875
164 .12750 .62750 .50625
165 .25375 .50375 .50500
166 .25250 .62875 .63000
167 .37875 .50375 .63500
168 .37875 .62875 .50250
169 .50375 .50375 .50250
170 .50875 .62875 .63000
171 .62875 .50250 .62875
172 .62875 .62875 .51125
173 .76125 .50375 .50750
174 .75375 .62750 .63000
175 .87750 .50875 .62875
176 .87875 .63625 .51125
177 .00250 .75375 .50250
178 .00250 .87875 .63500
179 .12750 .75250 .62875
180 .12875 .88625 .50250
181 .25250 .75250 .50250
182 .25625 .87875 .63500
183 .38750 .75375 .62750
184 .38500 .87875 .50250
185 .50500 .75750 .51250
186 .50500 .87875 .62875
187 .62875 .75250 .62875
188 .63000 .87750 .51125
189 .75250 .75375 .50250
190 .76250 .87875 .62750
191 .87750 .75500 .62875
192 .87750 .88250 .50250
193 .00375 .01000 .75250
194 .00375 .12875 .87750
195 .13000 .00875 .88000
196 .13250 .12750 .75375
197 .25500 .00250 .75500
198 .25750 .12875 .87875
199 .37750 .00250 .87750
200 .37875 .13250 .75250
201 .51000 .01125 .75375
202 .50500 .12750 .87875
203 .62750 .01000 .88000
204 .62750 .12875 .75375
205 .75375 .00375 .75375
206 .75750 .12750 .87875
207 .87875 .00375 .87750
208 .87875 .13500 .75250
209 .00750 .25750 .75625
210 .01125 .37750 .87875
211 .12875 .25250 .87875
212 .13375 .38375 .75375
213 .25500 .25375 .75375
214 .25250 .37750 .88000
215 .37875 .25250 .87750
216 .37750 .37875 .75500
217 .51000 .25375 .75250
218 .50250 .37875 .88250
219 .63750 .25375 .88000
220 .62875 .38750 .75250
221 .75250 .25500 .75375
222 .75250 .37750 .87750
223 .87750 .25250 .88750
224 .87875 .38750 .75375
225 .00250 .50625 .75250
226 .00250 .63250 .87875
227 .13500 .50250 .87875
228 .12875 .62875 .75500
229 .26250 .50375 .75375
230 .25375 .63625 .88500
231 .38000 .50500 .88750
232 .37750 .63000 .75375
233 .50375 .50375 .75375
234 .50375 .62875 .88500
235 .62875 .50375 .87875
236 .62750 .62875 .75500
237 .75375 .50375 .76000
238 .75250 .62875 .87750
239 .87875 .50375 .88500
240 .87875 .62750 .75375
241 .00375 .75500 .76000
242 .00500 .87875 .88000
243 .12750 .75875 .87750
244 .12875 .88250 .75500
245 .25500 .75500 .75250
246 .25250 .87875 .88625
247 .38500 .75500 .87875
248 .37875 .87875 .76000
249 .50250 .76250 .75375
250 .50375 .87875 .87750
251 .62750 .75500 .88000
252 .62875 .87875 .75375
253 .75375 .75375 .75500
254 .75375 .87750 .88000
255 .87875 .75250 .87875
256 .88625 .87750 .75375
