ITEM: TIMESTEP
1528380
ITEM: NUMBER OF ATOMS
256
ITEM: BOX BOUNDS pp pp pp
0 8.0
0 8.0
0 8.0
ITEM: ATOMS id xs ys zs
1 .00375 .00250 .01000
2 .00500 .12125 .11625
3 .12250 .00250 .11625
4 .12125 .11625 .00250
5 .22875 .00250 .01250
6 .22750 .11625 .11625
7 .34875 .00750 .11500
8 .34125 .11500 .01000
9 .50375 .00375 .01000
10 .50250 .12875 .12750
11 .62750 .00375 .12750
12 .62875 .12875 .01125
13 .75375 .00500 .00500
14 .75375 .12875 .12875
15 .87875 .00250 .12875
16 .87875 .13375 .00375
17 .00500 .22875 .00250
18 .00375 .34125 .11500
19 .12250 .22875 .11500
20 .11625 .34125 .00250
21 .22875 .23625 .00250
22 .22875 .34250 .12500
23 .34500 .22750 .11750
24 .34125 .34125 .00250
25 .50500 .26000 .00250
26 .50250 .37875 .12875
27 .63000 .25500 .13125
28 .63000 .38625 .01125
29 .75500 .25750 .00500
30 .75250 .37875 .13250
31 .87750 .25250 .12875
32 .87750 .37875 .00375
33 .00375 .50500 .00500
34 .00500 .62750 .12875
35 .12875 .51250 .13000
36 .12750 .62875 .00250
37 .25250 .50250 .01000
38 .25750 .62875 .12750
39 .38000 .50250 .12750
40 .38000 .62875 .00500
41 .50250 .50250 .00250
42 .50500 .62750 .12750
43 .62750 .50375 .13500
44 .62750 .62750 .00500
45 .75625 .50375 .00375
46 .75250 .62750 .13625
47 .88000 .50250 .12875
48 .87750 .62875 .00250
49 .00500 .75375 .00500
50 .00375 .87875 .13250
51 .13000 .75250 .13375
52 .13000 .88000 .00250
53 .25250 .76000 .00750
54 .25500 .87750 .12750
55 .37750 .75500 .12750
56 .37875 .87875 .00375
57 .50250 .75250 .01250
58 .50250 .88000 .12875
59 .62875 .75375 .12875
60 .62875 .88000 .00375
61 .75250 .75250 .00750
62 .75250 .87750 .12875
63 .88250 .75250 .13000
64 .87750 .87875 .01000
65 .00250 .00500 .22875
66 .00250 .12250 .34250
67 .11625 .00375 .34000
68 .11625 .11625 .23000
69 .22875 .00500 .22875
70 .22750 .11500 .34125
71 .34125 .00250 .34250
72 .34375 .12250 .23250
73 .50250 .00375 .26125
74 .50500 .12750 .37750
75 .62750 .01125 .38000
76 .62750 .12875 .25375
77 .75375 .00500 .25375
78 .76250 .13000 .37750
79 .87750 .00875 .38250
80 .87750 .12875 .25375
81 .01250 .23750 .23000
82 .00375 .34875 .34125
83 .11625 .22750 .34125
84 .12000 .34125 .22875
85 .23500 .23000 .22750
86 .23625 .34750 .34625
87 .34250 .22875 .34125
88 .34125 .34625 .22750
89 .50250 .25250 .25375
90 .50375 .38375 .37875
91 .62875 .25375 .37875
92 .63000 .38000 .25250
93 .75375 .25250 .25250
94 .75375 .37875 .37750
95 .87750 .25250 .37875
96 .88750 .37875 .25500
97 .00375 .50500 .25375
98 .00250 .63125 .38375
99 .12875 .50250 .37750
100 .12875 .63375 .25500
101 .25375 .50750 .25250
102 .25375 .62875 .38250
103 .37750 .50625 .37875
104 .37875 .63250 .25250
105 .50250 .50375 .25250
106 .50875 .62750 .37875
107 .62875 .50375 .37875
108 .62750 .62750 .25250
109 .75250 .50500 .25250
110 .75250 .63000 .37875
111 .88500 .50250 .38000
112 .87875 .62750 .25375
113 .00375 .75250 .25250
114 .00375 .87875 .37750
115 .12750 .75375 .37875
116 .12750 .88000 .25500
117 .26125 .76125 .25375
118 .25625 .88000 .38375
119 .38750 .75375 .38250
120 .38750 .87875 .25375
121 .50375 .75250 .25500
122 .50375 .87750 .37750
123 .63000 .75375 .37875
124 .62875 .87875 .26250
125 .75375 .75500 .25250
126 .75500 .87750 .37750
127 .88000 .75250 .38000
128 .87875 .87750 .25250
129 .00375 .00250 .50625
130 .00375 .12875 .63500
131 .13000 .00250 .62750
132 .12750 .12750 .50500
133 .25250 .00250 .50375
134 .25250 .13000 .62875
135 .38000 .00250 .62875
136 .38000 .13125 .50375
137 .50250 .01125 .50250
138 .50375 .13000 .62875
139 .62750 .01000 .62875
140 .62750 .13125 .50250
141 .75250 .00250 .50375
142 .75375 .12750 .62750
143 .87750 .00375 .63000
144 .87875 .12875 .50250
145 .00500 .25875 .50250
146 .00375 .37875 .62750
147 .13250 .25250 .63250
148 .13000 .37750 .50375
149 .25500 .25250 .50250
150 .25375 .38000 .62875
151 .37875 .25375 .62750
152 .38125 .38000 .50375
153 .50250 .25375 .50500
154 .50500 .37750 .63125
155 .62875 .25375 .62750
156 .62750 .37875 .50250
157 .75750 .25250 .50375
158 .75375 .38250 .62750
159 .88000 .25375 .63625
160 .88125 .37875 .50500
161 .01000 .50500 .51250
162 .00250 .62750 .63000
163 .13750 .50875 .62750
164 .12750 .62750 .50500
165 .25500 .51000 .50500
166 .25250 .62875 .62875
167 .37750 .50875 .62875
168 .38000 .63250 .50250
169 .50375 .50375 .50500
170 .50250 .62875 .62750
171 .62875 .50250 .62875
172 .62875 .63250 .50375
173 .75250 .50250 .50250
174 .75250 .63250 .62750
175 .88500 .50375 .63000
176 .87750 .62750 .50500
177 .00250 .75250 .51000
178 .00250 .88000 .62875
179 .12875 .75875 .62750
180 .12875 .87875 .50375
181 .25250 .75375 .50375
182 .25250 .88625 .62875
183 .37875 .75250 .62875
184 .38375 .87750 .50375
185 .50250 .75375 .50375
186 .50750 .87875 .62875
187 .62875 .76000 .62875
188 .62875 .88750 .50625
189 .75375 .75375 .50500
190 .76000 .87750 .62750
191 .87875 .75375 .62750
192 .88750 .88000 .50625
193 .00375 .00375 .75500
194 .01000 .12750 .87750
195 .13000 .00500 .88125
196 .12750 .13500 .76000
197 .26125 .00250 .75375
198 .25375 .13375 .87875
199 .37750 .00500 .87875
200 .37875 .12875 .75250
201 .50250 .00375 .75375
202 .50250 .12875 .88125
203 .62875 .00375 .88625
204 .62875 .12875 .75250
205 .75250 .00375 .76125
206 .75375 .12750 .87875
207 .88000 .00250 .87750
208 .87750 .12750 .75375
209 .00250 .25375 .76000
210 .01250 .38000 .87875
211 .13750 .25250 .87875
212 .12750 .37875 .75375
213 .25250 .25375 .75250
214 .25375 .38000 .87875
215 .38750 .25375 .87875
216 .37750 .37875 .75250
217 .50875 .25500 .75750
218 .50625 .38750 .87750
219 .62750 .25375 .87750
220 .62875 .38625 .75250
221 .75375 .25500 .75250
222 .75500 .38250 .87750
223 .87875 .25500 .87875
224 .87875 .38000 .75250
225 .00375 .50750 .75500
226 .00250 .62875 .87750
227 .12875 .50250 .87875
228 .12875 .62875 .75250
229 .25625 .50250 .75500
230 .25250 .63000 .87750
231 .37750 .50500 .88625
232 .38375 .62750 .75250
233 .50250 .51125 .75250
234 .50250 .62750 .87750
235 .62875 .50500 .87750
236 .62875 .62875 .75500
237 .75250 .50375 .75250
238 .75250 .62750 .87875
239 .87875 .51000 .87875
240 .88000 .62750 .75375
241 .00375 .75500 .75375
242 .00375 .87750 .87875
243 .12875 .75375 .87875
244 .12875 .87750 .75250
245 .25250 .75250 .75250
246 .25250 .87750 .87750
247 .37750 .75250 .88375
248 .37875 .87750 .75250
249 .50375 .75375 .75250
250 .50250 .88000 .87875
251 .62875 .76125 .87875
252 .62875 .87750 .75500
253 .75250 .75250 .75500
254 .75500 .87875 .87875
255 .87750 .75375 .88375
256 .87750 .87875 .75250
