ITEM: TIMESTEP
1529740
ITEM: NUMBER OF ATOMS
256
ITEM: BOX BOUNDS pp pp pp
0 8.0
0 8.0
0 8.0
ITEM: ATOMS id xs ys zs
2 .00250 .00375 .00250
1 .00250 .11625 .11625
4 .11500 .00375 .11500
3 .11500 .11625 .00250
6 .22750 .00250 .00500
5 .22750 .11625 .11625
8 .34250 .01125 .11875
7 .34375 .11625 .01000
9 .50500 .00250 .00375
10 .50250 .12875 .12875
11 .62875 .00500 .12750
12 .63000 .13250 .00375
13 .75500 .00500 .00375
14 .75250 .12875 .12875
15 .87875 .00375 .13000
16 .87750 .12875 .00375
18 .01125 .22750 .00250
17 .00375 .34125 .11500
20 .12500 .23000 .11625
19 .12125 .34625 .00625
22 .23000 .22875 .00250
21 .22750 .34000 .11750
24 .34250 .22750 .11500
23 .34000 .34750 .00500
25 .50250 .25250 .00375
26 .50250 .37750 .12750
27 .62875 .25500 .12875
28 .62875 .37875 .00375
29 .75375 .25375 .00375
30 .75250 .38375 .12750
31 .87875 .25375 .13125
32 .88250 .37875 .00250
33 .00500 .50875 .00250
34 .00625 .62750 .12875
35 .12750 .50375 .12875
36 .12750 .63250 .00375
37 .25250 .51125 .00375
38 .25500 .62875 .13250
39 .38500 .50250 .12875
40 .38375 .63375 .00500
41 .50375 .50250 .00875
42 .50500 .62750 .12875
43 .63000 .50250 .13125
44 .62875 .62750 .00375
45 .75625 .50250 .00625
46 .75750 .62750 .12750
47 .87875 .50250 .12875
48 .87875 .63000 .01125
49 .00375 .75250 .00625
50 .00500 .87875 .12875
51 .12750 .75375 .12750
52 .12875 .87875 .00250
53 .25375 .75250 .00500
54 .25375 .88000 .12750
55 .37875 .76000 .13750
56 .37875 .87875 .00250
57 .50250 .76125 .00250
58 .50250 .88750 .12875
59 .63125 .75500 .12750
60 .62875 .87750 .00750
61 .75375 .75375 .00375
62 .75250 .87875 .12875
63 .88000 .75500 .13625
64 .88000 .87875 .00625
66 .00875 .00250 .23375
65 .00500 .11625 .34000
68 .11750 .00375 .34125
67 .11500 .11500 .22750
70 .22750 .00250 .23500
69 .23125 .11625 .34000
72 .34000 .00375 .34250
71 .34000 .11500 .22875
73 .50375 .00250 .26250
74 .51000 .12750 .37875
75 .63750 .00375 .37750
76 .62875 .12750 .25625
77 .75250 .00250 .25375
78 .75375 .12875 .37750
79 .88625 .00250 .37875
80 .87750 .12875 .25250
82 .00375 .23000 .22875
81 .00250 .34125 .34375
84 .11750 .22875 .34000
83 .12000 .34000 .23000
86 .22875 .22875 .22875
85 .22750 .34000 .34000
88 .34125 .22750 .34000
87 .34000 .34875 .23000
89 .50375 .25375 .25250
90 .50375 .37875 .38000
91 .63375 .25500 .37750
92 .62750 .37750 .26250
93 .75250 .25500 .25500
94 .75250 .37875 .37875
95 .88000 .25250 .38375
96 .87750 .38250 .25375
97 .00375 .50375 .25750
98 .00375 .62875 .37875
99 .13000 .50250 .37875
100 .12875 .62750 .26125
101 .25750 .50375 .25250
102 .25375 .62750 .37750
103 .37750 .50375 .37750
104 .37750 .62875 .25500
105 .51125 .50375 .25375
106 .50250 .62750 .38500
107 .63625 .50250 .38750
108 .63125 .63125 .25250
109 .75250 .50250 .25375
110 .75500 .62750 .37875
111 .88125 .50250 .37875
112 .88625 .62875 .25375
113 .00250 .75625 .25500
114 .00375 .87875 .38375
115 .12875 .76125 .37875
116 .12750 .88125 .25375
117 .25625 .75250 .25250
118 .25500 .87750 .38625
119 .37750 .76000 .38500
120 .37875 .87750 .25250
121 .51000 .75375 .25375
122 .50875 .87750 .37875
123 .63750 .75375 .38250
124 .62875 .87875 .25750
125 .75375 .75875 .25500
126 .75750 .87750 .37750
127 .88000 .75625 .37875
128 .87875 .87750 .25375
129 .00375 .00250 .51000
130 .00375 .13375 .63625
131 .12750 .00375 .62750
132 .12750 .13000 .50875
133 .25375 .00250 .50750
134 .25875 .12875 .62875
135 .37750 .00625 .63625
136 .38000 .13000 .51000
137 .50250 .00875 .50250
138 .50750 .12875 .62750
139 .62750 .00250 .62875
140 .62750 .12875 .50375
141 .75375 .00375 .50250
142 .75250 .13000 .62750
143 .88125 .00375 .62750
144 .87875 .13125 .50375
145 .00375 .25500 .50250
146 .00250 .37875 .62875
147 .13000 .25250 .63000
148 .12875 .38500 .50250
149 .25750 .25375 .50375
150 .25375 .37750 .62750
151 .37875 .25500 .62750
152 .37875 .37875 .50375
153 .50875 .25250 .50500
154 .50375 .37875 .62875
155 .63250 .25875 .62875
156 .63000 .37875 .50375
157 .75250 .25375 .50250
158 .75250 .37750 .62750
159 .88250 .25500 .63000
160 .87750 .38375 .50750
161 .00875 .50750 .50250
162 .00250 .62875 .62750
163 .12750 .50250 .63375
164 .12750 .62750 .50250
165 .25250 .50250 .50875
166 .25250 .62875 .63000
167 .37875 .50375 .63000
168 .37875 .63000 .51000
169 .50250 .50375 .50375
170 .50500 .63000 .63000
171 .63000 .50250 .62750
172 .62875 .62875 .50375
173 .75625 .50375 .50375
174 .76125 .63625 .62750
175 .87875 .50375 .62750
176 .88125 .62750 .50875
177 .00500 .75500 .50375
178 .01250 .88000 .62750
179 .12875 .75375 .63500
180 .12750 .87750 .51000
181 .25375 .75250 .51125
182 .26250 .87750 .62750
183 .37875 .75625 .62875
184 .38000 .87750 .50250
185 .50250 .75500 .50375
186 .50375 .87875 .62750
187 .62875 .75250 .62750
188 .63625 .88750 .50500
189 .75375 .75250 .50375
190 .75375 .87875 .62750
191 .87750 .76250 .63000
192 .87875 .87750 .50250
193 .01000 .00500 .75250
194 .00750 .12750 .87750
195 .13000 .00250 .88000
196 .13250 .12875 .75250
197 .25750 .00250 .75375
198 .26000 .13125 .87875
199 .37875 .00875 .87875
200 .37750 .12875 .75500
201 .50375 .00625 .75500
202 .50875 .12875 .88000
203 .62750 .00250 .88000
204 .62750 .13750 .75875
205 .75875 .00250 .75500
206 .76125 .12875 .87875
207 .87875 .00250 .87875
208 .88625 .12875 .75375
209 .00375 .25500 .75500
210 .00250 .37750 .87750
211 .12750 .25500 .88250
212 .12875 .37750 .75375
213 .25250 .25750 .75500
214 .25375 .37750 .87750
215 .37875 .25375 .88500
216 .37750 .37750 .75625
217 .50375 .25250 .75500
218 .50375 .37750 .87750
219 .62875 .25875 .87875
220 .62875 .37875 .75375
221 .75375 .25375 .75250
222 .75500 .37875 .87875
223 .87750 .25250 .87875
224 .88000 .38000 .75250
225 .01125 .50500 .75375
226 .00250 .62750 .88000
227 .13750 .50375 .88625
228 .13375 .63000 .75500
229 .25500 .50375 .75250
230 .25375 .62875 .87750
231 .37750 .50375 .87750
232 .37750 .62750 .76125
233 .50375 .50375 .75250
234 .50250 .62875 .87750
235 .62750 .51000 .87875
236 .62875 .62875 .75500
237 .75250 .50375 .76000
238 .75250 .62750 .87875
239 .88000 .51000 .88000
240 .87875 .62875 .75625
241 .00500 .75500 .75375
242 .00250 .87750 .87875
243 .13000 .75375 .87750
244 .12875 .88000 .75375
245 .25250 .75250 .75250
246 .25500 .88250 .87750
247 .37750 .75250 .88000
248 .38000 .88000 .75500
249 .50375 .75250 .75250
250 .50250 .88125 .87750
251 .62875 .75500 .87875
252 .62875 .88000 .75875
253 .75375 .75250 .75375
254 .75625 .88000 .87750
255 .87750 .75375 .87750
256 .87750 .87875 .75500
