ITEM: TIMESTEP
1529260
ITEM: NUMBER OF ATOMS
256
ITEM: BOX BOUNDS pp pp pp
0 8.0
0 8.0
0 8.0
ITEM: ATOMS id xs ys zs
2 .00750 .00375 .00250
1 .00500 .11625 .12250
4 .11500 .00375 .11625
3 .11500 .11500 .01125
6 .23125 .01000 .00250
5 .22750 .11500 .11750
8 .34375 .00375 .11500
7 .34125 .11750 .01125
9 .50375 .00500 .00375
10 .50375 .12750 .12875
11 .62875 .01250 .12875
12 .63250 .12750 .00375
13 .75250 .00875 .00250
14 .75375 .12875 .13000
15 .87750 .01250 .12750
16 .87875 .12875 .00500
18 .00375 .22875 .00625
17 .00500 .34000 .11625
20 .11625 .23500 .11500
19 .11625 .34000 .01000
22 .23000 .22875 .00250
21 .22750 .34000 .11500
24 .34375 .22750 .11500
23 .34125 .34125 .00250
25 .51250 .26000 .01250
26 .50250 .38000 .12750
27 .62750 .25375 .12750
28 .62750 .38500 .00375
29 .75500 .26125 .00375
30 .76000 .38375 .12875
31 .87875 .25250 .12875
32 .87875 .37750 .00375
33 .01000 .50250 .01000
34 .01125 .62750 .13375
35 .13375 .50250 .12875
36 .13750 .63250 .00375
37 .25250 .50375 .01125
38 .25500 .62750 .12750
39 .38375 .50375 .12750
40 .38500 .63375 .00375
41 .50250 .50250 .00375
42 .50250 .62875 .12875
43 .62875 .51125 .13750
44 .62875 .62875 .00375
45 .75375 .50375 .00375
46 .75250 .63500 .12875
47 .87875 .50375 .13000
48 .87750 .62750 .01125
49 .00375 .75375 .00250
50 .00375 .87875 .12750
51 .12750 .75875 .12875
52 .12875 .87875 .00250
53 .25250 .76000 .01250
54 .25375 .87750 .12750
55 .38000 .75375 .13000
56 .37875 .88375 .00250
57 .50250 .76125 .01125
58 .50500 .87875 .12875
59 .63750 .75250 .12875
60 .62875 .88625 .00375
61 .75875 .75500 .00500
62 .76125 .87750 .12875
63 .88750 .75375 .12875
64 .87875 .87750 .00375
66 .00250 .01125 .22875
65 .00500 .12375 .34125
68 .11875 .00375 .34250
67 .11750 .11500 .23500
70 .23000 .00500 .22875
69 .23000 .11500 .34000
72 .34000 .00875 .34000
71 .34250 .11500 .22875
73 .50250 .00250 .25250
74 .50375 .12875 .38750
75 .62875 .00625 .37875
76 .63375 .12750 .25500
77 .75250 .00375 .25375
78 .75375 .12750 .37875
79 .87750 .00250 .38125
80 .87875 .12875 .25250
82 .01000 .23000 .22750
81 .00750 .34625 .34000
84 .11875 .22875 .34750
83 .11500 .34000 .22875
86 .22750 .23500 .23125
85 .22875 .34000 .34000
88 .34125 .22750 .34000
87 .34250 .34125 .22750
89 .51000 .25500 .25500
90 .50375 .37875 .37875
91 .62875 .25250 .37750
92 .62875 .37875 .25250
93 .75250 .25375 .25250
94 .76125 .37875 .38000
95 .88625 .25375 .37875
96 .88000 .37750 .25875
97 .00375 .50875 .25250
98 .00375 .62750 .38375
99 .13250 .50375 .37750
100 .13000 .62875 .25250
101 .25375 .50250 .25375
102 .25250 .63125 .37875
103 .37750 .50250 .38000
104 .37750 .63000 .25375
105 .50250 .50250 .25375
106 .50250 .63000 .37750
107 .62875 .50375 .38000
108 .62750 .63625 .25375
109 .75375 .50375 .25250
110 .75250 .62875 .37875
111 .87750 .50250 .37750
112 .88000 .62875 .25250
113 .00250 .75375 .25500
114 .00250 .87875 .37875
115 .13125 .75250 .37875
116 .13375 .87750 .25375
117 .25500 .76250 .25250
118 .25250 .87875 .37875
119 .37750 .75375 .38500
120 .37875 .88000 .25750
121 .50500 .75500 .25375
122 .50250 .87750 .37875
123 .63125 .75250 .37875
124 .63000 .87875 .25625
125 .75250 .75375 .25375
126 .75375 .87875 .38375
127 .88375 .75250 .37875
128 .88000 .87750 .25875
129 .00500 .00375 .50375
130 .00250 .13375 .62750
131 .13000 .00250 .63250
132 .12750 .12750 .50375
133 .25250 .00250 .50250
134 .25500 .13500 .62875
135 .37750 .00250 .62875
136 .37750 .12875 .50375
137 .50375 .01250 .50250
138 .50375 .12750 .62875
139 .62750 .00250 .62750
140 .63000 .13625 .50250
141 .75250 .00375 .50250
142 .75500 .12875 .62750
143 .88000 .00250 .63125
144 .87875 .13000 .50250
145 .00375 .25375 .50375
146 .00250 .37750 .62750
147 .13750 .25500 .63000
148 .13000 .37875 .50250
149 .25375 .25375 .50500
150 .25750 .38750 .62875
151 .37875 .25250 .62875
152 .38000 .37875 .50250
153 .50500 .25500 .50250
154 .50250 .38750 .63750
155 .63750 .25500 .62875
156 .62750 .38625 .50375
157 .75250 .25250 .50625
158 .75250 .37875 .62875
159 .87875 .25375 .62875
160 .88250 .38625 .50375
161 .00500 .50375 .50250
162 .00375 .63250 .63000
163 .12875 .50250 .62875
164 .12750 .62875 .50500
165 .25750 .50250 .50375
166 .25375 .62875 .62875
167 .37750 .50625 .63750
168 .37750 .62875 .50375
169 .50250 .50500 .50500
170 .50375 .62875 .63000
171 .62750 .50250 .63750
172 .62750 .62875 .50250
173 .75375 .50250 .50500
174 .75250 .62750 .62750
175 .87875 .50375 .62750
176 .87750 .62875 .51000
177 .00375 .75375 .50250
178 .00500 .87875 .62875
179 .12750 .75250 .62750
180 .12875 .87875 .50375
181 .25500 .75625 .50250
182 .25375 .87875 .63000
183 .38375 .75250 .62750
184 .37750 .87750 .50625
185 .50375 .75625 .51250
186 .50625 .88000 .62875
187 .62875 .75250 .62875
188 .62875 .88625 .50250
189 .76000 .75250 .51250
190 .75375 .87875 .62750
191 .88125 .75250 .63000
192 .88000 .88000 .50375
193 .00375 .00250 .75500
194 .00500 .13375 .88250
195 .12750 .00250 .88000
196 .13000 .12875 .75250
197 .25375 .00250 .75250
198 .25375 .13375 .88250
199 .38000 .00250 .88125
200 .37750 .12875 .75375
201 .50250 .00500 .75500
202 .51000 .13000 .87750
203 .63000 .01125 .88250
204 .62875 .12750 .75375
205 .75375 .00375 .75250
206 .75250 .12875 .88625
207 .87750 .00375 .87875
208 .88000 .12875 .75250
209 .00375 .25500 .76000
210 .00250 .37750 .88250
211 .12875 .25375 .87875
212 .13000 .37750 .76125
213 .25500 .25250 .75500
214 .25250 .37875 .87875
215 .37750 .25250 .88000
216 .37875 .37750 .75375
217 .50250 .25375 .75250
218 .51250 .38000 .87875
219 .62750 .25375 .88000
220 .62750 .38000 .75375
221 .76125 .25500 .75375
222 .75250 .38000 .88625
223 .87875 .25250 .88375
224 .87750 .38000 .75500
225 .00375 .50375 .75375
226 .00375 .62750 .87875
227 .12750 .50375 .87750
228 .12875 .62750 .75500
229 .25250 .50625 .75375
230 .26250 .62875 .87750
231 .37875 .50250 .88250
232 .37875 .63250 .75375
233 .50250 .50750 .76250
234 .50625 .63625 .88250
235 .63250 .50500 .88375
236 .63000 .62875 .75250
237 .75375 .50250 .75375
238 .75500 .63000 .87750
239 .87875 .50500 .87875
240 .88125 .63000 .75250
241 .00250 .75375 .75250
242 .00375 .88000 .87875
243 .12750 .75250 .88625
244 .12875 .88000 .75250
245 .25625 .75375 .75375
246 .25375 .87750 .87875
247 .37875 .75500 .88500
248 .37750 .87875 .75250
249 .50375 .75500 .75250
250 .50500 .88125 .87875
251 .62750 .75625 .87750
252 .62875 .88000 .75250
253 .75500 .75250 .75375
254 .75250 .87875 .87750
255 .87875 .75250 .88000
256 .87875 .87875 .75375
