ITEM: TIMESTEP
1528480
ITEM: NUMBER OF ATOMS
256
ITEM: BOX BOUNDS pp pp pp
0 8.0
0 8.0
0 8.0
ITEM: ATOMS id xs ys zs
1 .00500 .00250 .00250
2 .00375 .11500 .11500
3 .11625 .00500 .11500
4 .11500 .11625 .00375
5 .22750 .00375 .00375
6 .22875 .12125 .11750
7 .34125 .01250 .11500
8 .34625 .11625 .00250
9 .50250 .00875 .01250
10 .50250 .12875 .13000
11 .62750 .00250 .12750
12 .62750 .13750 .00375
13 .75375 .00250 .01000
14 .75250 .13750 .12875
15 .87750 .00375 .12750
16 .87875 .12875 .00375
17 .00250 .22750 .00500
18 .00250 .34750 .12375
19 .11625 .22750 .11625
20 .11750 .34125 .00375
21 .22750 .22875 .00250
22 .23125 .34375 .11500
23 .34625 .22875 .11500
24 .34000 .34000 .00625
25 .50250 .25375 .01250
26 .50375 .37875 .12875
27 .62750 .26000 .12750
28 .62750 .37750 .00750
29 .75250 .25375 .00250
30 .75375 .37750 .12750
31 .88125 .25375 .13750
32 .88500 .37875 .00250
33 .00250 .50375 .00250
34 .00250 .62750 .12750
35 .12875 .50375 .12750
36 .12875 .62875 .00625
37 .26125 .50250 .00375
38 .25250 .62750 .13000
39 .37875 .50250 .12750
40 .37750 .62750 .00375
41 .50375 .50375 .00250
42 .50250 .62875 .12750
43 .62750 .50250 .12875
44 .62875 .63750 .00750
45 .75375 .51250 .00500
46 .75250 .62875 .13625
47 .88250 .51250 .12750
48 .87875 .63250 .00375
49 .00250 .75250 .00250
50 .00250 .87875 .12750
51 .13000 .75375 .13000
52 .13250 .87875 .00250
53 .25375 .75500 .00250
54 .25250 .88000 .13625
55 .38125 .75250 .13250
56 .37875 .87875 .00375
57 .50375 .75375 .00500
58 .51250 .87875 .13750
59 .63125 .75375 .12875
60 .62875 .88250 .00250
61 .75250 .75250 .00250
62 .75250 .87875 .12875
63 .87875 .75250 .13625
64 .88000 .87875 .00250
65 .00375 .00375 .22875
66 .00250 .11500 .34375
67 .11625 .00250 .34375
68 .11500 .11750 .22875
69 .22750 .01250 .23125
70 .22875 .11625 .34000
71 .34125 .00250 .34000
72 .34000 .12375 .22875
73 .50375 .00375 .25250
74 .51125 .13375 .37750
75 .63375 .00625 .37875
76 .62750 .12750 .25250
77 .75250 .00375 .25500
78 .75375 .13000 .37875
79 .87875 .00500 .37875
80 .88000 .12875 .25625
81 .00250 .23000 .22750
82 .00250 .34125 .34250
83 .11625 .22750 .34000
84 .11625 .34125 .22750
85 .22875 .23000 .23750
86 .22875 .34125 .34125
87 .34125 .23375 .34250
88 .34125 .34125 .22875
89 .50375 .25625 .25250
90 .50500 .38625 .37750
91 .63500 .26125 .37750
92 .63750 .37750 .25375
93 .75250 .25250 .25375
94 .75375 .38250 .38250
95 .87750 .25375 .37750
96 .87750 .37875 .25500
97 .00250 .50375 .25250
98 .00250 .62875 .37750
99 .12750 .50500 .37750
100 .13000 .63125 .26125
101 .25500 .50250 .25375
102 .25250 .62750 .38250
103 .37875 .50250 .37875
104 .38375 .62875 .25375
105 .50250 .50250 .25250
106 .50625 .63500 .37750
107 .63125 .50500 .37875
108 .63500 .62875 .25500
109 .75250 .50250 .25500
110 .75500 .63000 .38000
111 .87875 .50250 .38000
112 .87750 .62875 .25250
113 .00375 .75375 .25375
114 .00375 .87750 .37750
115 .13125 .75750 .37750
116 .12875 .87875 .25250
117 .25375 .75750 .25375
118 .25250 .88500 .37750
119 .37875 .75375 .37750
120 .37750 .87750 .25250
121 .50250 .75375 .25250
122 .50500 .87750 .38375
123 .63000 .75250 .37750
124 .62750 .87875 .25375
125 .75375 .75375 .25500
126 .75500 .87875 .37750
127 .87750 .76250 .37875
128 .87875 .87750 .25250
129 .00250 .00500 .50250
130 .00250 .12750 .63750
131 .12750 .00750 .63250
132 .12875 .13500 .51125
133 .25250 .00250 .50375
134 .25250 .12750 .63250
135 .37750 .01250 .62750
136 .37750 .12875 .50375
137 .51125 .00250 .50375
138 .50500 .12875 .62875
139 .62875 .00250 .62875
140 .63000 .12875 .50250
141 .75250 .00375 .50250
142 .75375 .12875 .62875
143 .87750 .00375 .62750
144 .87750 .13375 .50375
145 .00250 .25250 .50375
146 .00375 .37750 .62875
147 .12750 .25250 .62750
148 .12875 .37750 .50875
149 .25250 .25250 .50375
150 .25250 .37750 .62875
151 .37875 .25375 .63625
152 .37875 .38000 .50250
153 .50375 .25250 .51125
154 .50250 .37750 .63000
155 .63750 .25750 .62750
156 .63125 .38000 .50375
157 .75250 .25250 .50250
158 .75375 .38000 .63000
159 .87750 .25375 .62750
160 .87875 .37875 .50375
161 .00375 .50625 .50250
162 .00375 .62750 .62750
163 .13250 .50375 .62750
164 .12875 .62875 .50875
165 .25375 .50375 .50250
166 .25250 .62750 .63375
167 .37875 .50250 .62875
168 .38000 .63500 .50500
169 .50250 .50250 .50375
170 .50500 .63125 .62875
171 .63750 .50875 .63125
172 .62750 .62750 .50250
173 .75250 .50250 .50250
174 .75250 .62750 .62750
175 .87750 .50250 .62875
176 .88625 .63625 .50250
177 .00375 .75250 .50375
178 .00250 .88000 .63625
179 .13125 .75250 .62875
180 .13250 .87750 .50375
181 .25375 .75250 .50250
182 .25375 .87875 .63000
183 .37875 .75250 .62875
184 .37750 .87875 .50375
185 .50250 .75500 .50375
186 .50375 .88750 .62875
187 .62875 .76000 .62875
188 .62750 .87750 .50375
189 .75500 .75375 .50250
190 .75250 .87875 .62875
191 .88000 .75250 .62875
192 .87750 .87875 .50375
193 .00500 .00250 .75250
194 .00375 .13000 .87750
195 .12875 .00250 .87875
196 .12875 .13000 .75375
197 .25250 .00375 .75375
198 .26250 .12750 .87750
199 .37875 .00250 .87875
200 .38000 .12750 .75250
201 .51000 .00375 .75250
202 .50875 .12750 .87750
203 .63000 .01000 .88500
204 .62750 .13000 .75375
205 .75375 .00250 .75875
206 .75375 .12750 .88125
207 .88125 .00375 .87750
208 .87750 .13625 .75250
209 .00750 .25500 .75250
210 .00375 .38500 .88625
211 .12750 .25375 .88500
212 .12875 .38500 .75250
213 .25250 .25500 .75375
214 .25250 .37750 .87750
215 .38375 .25250 .87750
216 .37875 .37750 .75250
217 .50500 .25875 .75250
218 .50250 .37750 .87750
219 .62750 .25250 .88125
220 .62750 .37750 .75250
221 .75250 .25250 .75500
222 .75375 .38125 .87875
223 .88625 .25375 .87750
224 .88000 .37875 .75500
225 .00375 .50250 .75250
226 .00250 .63000 .88000
227 .12750 .50500 .87750
228 .13125 .62750 .75750
229 .25625 .50375 .75375
230 .25375 .62750 .87875
231 .37875 .50375 .87750
232 .38000 .63250 .75625
233 .50500 .50375 .75250
234 .50375 .62750 .87875
235 .62875 .50250 .87875
236 .62875 .62750 .75375
237 .75375 .50375 .75250
238 .75500 .62875 .87875
239 .88000 .50500 .87750
240 .87875 .62750 .75500
241 .00750 .75250 .75500
242 .00375 .87750 .88500
243 .12750 .75375 .87875
244 .13000 .88000 .75375
245 .25250 .75250 .75250
246 .25250 .87875 .87750
247 .38375 .76250 .88500
248 .38125 .87875 .75375
249 .50375 .75250 .75250
250 .50375 .88000 .87875
251 .62875 .75250 .87875
252 .62750 .87875 .75250
253 .75500 .75375 .75250
254 .75250 .88375 .87750
255 .87875 .75250 .88250
256 .87750 .87750 .76000
