ITEM: TIMESTEP
1529780
ITEM: NUMBER OF ATOMS
256
ITEM: BOX BOUNDS pp pp pp
0 8.0
0 8.0
0 8.0
ITEM: ATOMS id xs ys zs
2 .00375 .00500 .00250
1 .00750 .11500 .11625
4 .11500 .00500 .11500
3 .11750 .11875 .01000
6 .22875 .00375 .00250
5 .22875 .11625 .11625
8 .34625 .00250 .11500
7 .34125 .11500 .00500
9 .51250 .00375 .00375
10 .50875 .13625 .12750
11 .62750 .00375 .12875
12 .63000 .12750 .00375
13 .75625 .00375 .00500
14 .75500 .12875 .12875
15 .87750 .00250 .12875
16 .88375 .12750 .00250
18 .00250 .23000 .00375
17 .00375 .34125 .11625
20 .11625 .23125 .11500
19 .11500 .34000 .00375
22 .22875 .22875 .00250
21 .23500 .34000 .11500
24 .34125 .22875 .12125
23 .34125 .34000 .00375
25 .50375 .25250 .00375
26 .50875 .38750 .13000
27 .62875 .25250 .12875
28 .62875 .38250 .00250
29 .75250 .25250 .00250
30 .75375 .37875 .13000
31 .87750 .25250 .12875
32 .87875 .37875 .00500
33 .00250 .50375 .00375
34 .01250 .62875 .13000
35 .12875 .50375 .12750
36 .13000 .62750 .00375
37 .25250 .50875 .00500
38 .25375 .63750 .12750
39 .38125 .50375 .13000
40 .37750 .62750 .00375
41 .50750 .50250 .00250
42 .50375 .63250 .12750
43 .62875 .50375 .12750
44 .62750 .62750 .01125
45 .75375 .50250 .00375
46 .75500 .63000 .12750
47 .87750 .50500 .13375
48 .87750 .63500 .00750
49 .00875 .75375 .00250
50 .00375 .87875 .12875
51 .12875 .75500 .12750
52 .12875 .87875 .00250
53 .25500 .75375 .00250
54 .25250 .87750 .12875
55 .38250 .75250 .12750
56 .38000 .87750 .00250
57 .50500 .75250 .00250
58 .51000 .87875 .13000
59 .62875 .75250 .12750
60 .62750 .88000 .01000
61 .75250 .75250 .00250
62 .75375 .88125 .13625
63 .88000 .75500 .12875
64 .87875 .87875 .00375
66 .00375 .00750 .22875
65 .00250 .11500 .34250
68 .11625 .00375 .34000
67 .11625 .11625 .23000
70 .22750 .00875 .22750
69 .22875 .12125 .34625
72 .34000 .00250 .34125
71 .34000 .11750 .22875
73 .50250 .00250 .25375
74 .50375 .13000 .37750
75 .62875 .00500 .37750
76 .62750 .12875 .25375
77 .75250 .01125 .25250
78 .75750 .13375 .37750
79 .88625 .00250 .37750
80 .87750 .13000 .25375
82 .00375 .23125 .23000
81 .00875 .34125 .34125
84 .11625 .22750 .34125
83 .11500 .34125 .22875
86 .23000 .22875 .22875
85 .23500 .34000 .34125
88 .34000 .22750 .34875
87 .34375 .34000 .22750
89 .50375 .25250 .25250
90 .50250 .37875 .37750
91 .62750 .25375 .37750
92 .63625 .37750 .26000
93 .75500 .25375 .25375
94 .75500 .37750 .38000
95 .87750 .26250 .37750
96 .87875 .37750 .25500
97 .00375 .50375 .25375
98 .00375 .63250 .37750
99 .12750 .50875 .37875
100 .12750 .62750 .25500
101 .25250 .50250 .25375
102 .25250 .63000 .37875
103 .37750 .50375 .37750
104 .38125 .62750 .26125
105 .50375 .50375 .25250
106 .50375 .62875 .37750
107 .62875 .51125 .37875
108 .62750 .62750 .25375
109 .75250 .50375 .25875
110 .76125 .62750 .37875
111 .87750 .50375 .37750
112 .87875 .62875 .25250
113 .00250 .75250 .25375
114 .00875 .88000 .37750
115 .13625 .75500 .37750
116 .12750 .87875 .25250
117 .25375 .75500 .25375
118 .25375 .87875 .38625
119 .38000 .75250 .37875
120 .37750 .88000 .25500
121 .50375 .75500 .25375
122 .50500 .87750 .37750
123 .62875 .75375 .37875
124 .62875 .87875 .25250
125 .75250 .75250 .25250
126 .75375 .87750 .37875
127 .87750 .75375 .37750
128 .88000 .87875 .25375
129 .00375 .00250 .50250
130 .01000 .12875 .62875
131 .12875 .00250 .63000
132 .12875 .13500 .50500
133 .25750 .00750 .50375
134 .25750 .12875 .63000
135 .38375 .00250 .62875
136 .38375 .13125 .50375
137 .50250 .00375 .50250
138 .50625 .12750 .62875
139 .63375 .00250 .62750
140 .63000 .12875 .50250
141 .75375 .00750 .50250
142 .75250 .12750 .62750
143 .87750 .00375 .63000
144 .88500 .12875 .50250
145 .00375 .25375 .50375
146 .00375 .37875 .63000
147 .13250 .25375 .62875
148 .13625 .37750 .51000
149 .25375 .25750 .50250
150 .26125 .38750 .63000
151 .37750 .25375 .62875
152 .37875 .38250 .51000
153 .50375 .26000 .50500
154 .50750 .37875 .63000
155 .63000 .25250 .62750
156 .62875 .38000 .50250
157 .75375 .25250 .50375
158 .75375 .37875 .62750
159 .87750 .25250 .63375
160 .87750 .37750 .50375
161 .01250 .50375 .50375
162 .00500 .62875 .62750
163 .13500 .50500 .62750
164 .12750 .62750 .50375
165 .25875 .50375 .50250
166 .25375 .62750 .63000
167 .38000 .50250 .63625
168 .38500 .63250 .50375
169 .50500 .50375 .50875
170 .50250 .62875 .63000
171 .63000 .50375 .62875
172 .62750 .62750 .50500
173 .75250 .50500 .50250
174 .75375 .63500 .62875
175 .88000 .50375 .62875
176 .87750 .62750 .51250
177 .00375 .75375 .51250
178 .00875 .87750 .62750
179 .12750 .76250 .62875
180 .12875 .87750 .50375
181 .25500 .75250 .50250
182 .25375 .87750 .62875
183 .37750 .75625 .62875
184 .37875 .87875 .50375
185 .50500 .75750 .51125
186 .50250 .87750 .62750
187 .62875 .75500 .63250
188 .62750 .88000 .50250
189 .75500 .75250 .50500
190 .75500 .87750 .62750
191 .88000 .75250 .62750
192 .87875 .87750 .50250
193 .00250 .00250 .75375
194 .00500 .12875 .87875
195 .12750 .00375 .87875
196 .13750 .12875 .75375
197 .25250 .00375 .75375
198 .25250 .13375 .88250
199 .37875 .00250 .87875
200 .37750 .12750 .75250
201 .50250 .00375 .75250
202 .50375 .12875 .87875
203 .62750 .00500 .88000
204 .62875 .12750 .75250
205 .75375 .00375 .75250
206 .75250 .12875 .87750
207 .87875 .00375 .88250
208 .87750 .12750 .75375
209 .00375 .26000 .75250
210 .00375 .38500 .87875
211 .12875 .25375 .88625
212 .12875 .37875 .75375
213 .25375 .25375 .75875
214 .25250 .37875 .87750
215 .37875 .25250 .87750
216 .38250 .37875 .76000
217 .50375 .25500 .75375
218 .50375 .37875 .87875
219 .62875 .25500 .87750
220 .62875 .38250 .75250
221 .75375 .25500 .75875
222 .75375 .38000 .87750
223 .88625 .25375 .87875
224 .88000 .37875 .75500
225 .00375 .50250 .75625
226 .00250 .62750 .88750
227 .12750 .50375 .88000
228 .12875 .63375 .75250
229 .26250 .50375 .75250
230 .25250 .62875 .88250
231 .37875 .50250 .87875
232 .37750 .62875 .76000
233 .50375 .50250 .75250
234 .50375 .63000 .87750
235 .63750 .50250 .87875
236 .62750 .62875 .75375
237 .75375 .50500 .75375
238 .75625 .62875 .87750
239 .87750 .50250 .87750
240 .88125 .62875 .75375
241 .01125 .75375 .75375
242 .00375 .87750 .87750
243 .13375 .75375 .87750
244 .13250 .87875 .75250
245 .25250 .75500 .75375
246 .25750 .88000 .87875
247 .37875 .75250 .87875
248 .38125 .87875 .75375
249 .50500 .75500 .75375
250 .50250 .87750 .88375
251 .62750 .75375 .88000
252 .62750 .87875 .75500
253 .75375 .75375 .75250
254 .75375 .88250 .87875
255 .87750 .75375 .88000
256 .88125 .87875 .75375
