ITEM: TIMESTEP
1529160
ITEM: NUMBER OF ATOMS
256
ITEM: BOX BOUNDS pp pp pp
0 8.0
0 8.0
0 8.0
ITEM: ATOMS id xs ys zs
2 .00250 .00250 .00750
1 .00250 .11625 .12125
4 .11625 .00250 .11500
3 .11500 .12125 .00250
6 .22875 .00375 .00250
5 .22875 .11625 .11500
8 .34000 .00250 .11500
7 .34000 .11625 .00250
9 .50375 .00250 .01250
10 .50250 .13625 .12750
11 .62750 .00375 .12750
12 .62875 .13250 .00250
13 .75250 .00250 .00375
14 .75250 .12875 .12875
15 .87750 .00250 .12750
16 .87750 .12750 .00375
18 .00375 .22875 .00750
17 .00375 .34000 .11500
20 .11625 .22875 .11625
19 .11625 .34000 .00375
22 .22750 .23750 .00750
21 .22875 .34000 .11625
24 .34000 .23000 .11500
23 .34000 .34875 .00250
25 .50375 .25875 .00500
26 .50375 .37875 .12750
27 .62750 .25500 .12875
28 .63250 .37875 .00375
29 .75375 .25250 .00500
30 .75500 .38750 .12750
31 .87750 .25875 .12750
32 .87750 .38000 .00250
33 .00375 .50875 .00250
34 .00375 .62750 .13750
35 .12750 .50500 .12750
36 .12750 .62875 .00625
37 .25375 .50500 .00250
38 .25250 .62875 .13250
39 .38125 .50375 .13250
40 .37750 .62875 .00375
41 .50250 .50375 .01250
42 .50375 .62750 .13000
43 .63625 .50375 .12875
44 .62875 .62750 .00625
45 .76250 .50250 .00250
46 .75375 .63000 .13625
47 .87875 .50250 .12875
48 .87750 .62750 .00375
49 .00375 .75250 .00375
50 .00875 .87750 .12875
51 .12875 .76000 .13000
52 .12875 .87875 .00750
53 .25250 .75375 .00375
54 .25375 .88000 .13000
55 .37750 .76000 .12750
56 .37875 .87875 .00500
57 .50375 .76125 .00250
58 .50250 .87750 .12750
59 .63000 .75250 .12875
60 .63250 .87875 .01125
61 .75750 .75500 .00250
62 .75375 .87750 .12750
63 .87750 .75250 .12750
64 .88250 .87750 .00250
66 .01000 .00375 .23125
65 .00375 .11500 .34000
68 .11625 .00250 .34125
67 .11625 .11625 .23500
70 .22875 .00500 .22750
69 .22750 .12500 .34125
72 .34125 .00250 .34250
71 .34000 .11500 .22875
73 .50375 .00375 .25250
74 .50375 .13000 .38750
75 .62750 .00250 .38000
76 .62875 .12750 .25250
77 .75625 .00375 .26000
78 .75250 .13000 .37750
79 .87750 .01000 .37750
80 .88000 .13000 .25250
82 .00250 .22875 .23000
81 .00375 .34750 .34000
84 .11750 .23500 .34000
83 .11500 .34125 .22750
86 .23375 .23000 .22750
85 .23000 .34875 .34000
88 .34125 .23375 .34000
87 .34250 .34000 .22750
89 .50250 .25250 .25500
90 .51250 .37750 .37875
91 .62750 .25250 .37875
92 .63500 .37750 .25250
93 .75375 .25875 .25750
94 .75375 .37875 .38375
95 .88375 .25375 .38250
96 .87750 .37750 .25375
97 .00375 .50250 .25750
98 .01250 .62875 .37750
99 .12875 .50875 .37875
100 .12750 .62750 .25250
101 .25250 .50500 .25250
102 .26000 .63625 .37750
103 .37875 .50500 .37875
104 .37750 .63250 .25250
105 .50250 .51250 .25375
106 .50375 .62750 .37750
107 .63000 .50375 .37750
108 .62875 .62875 .25500
109 .75875 .50250 .25250
110 .75375 .62750 .37875
111 .88000 .50250 .37750
112 .87875 .62750 .25250
113 .00375 .75375 .25875
114 .00500 .87875 .37875
115 .12750 .75250 .38500
116 .13625 .88000 .25250
117 .26250 .75375 .25375
118 .25250 .87875 .38250
119 .38125 .75375 .37875
120 .37875 .87750 .25500
121 .50250 .75250 .25375
122 .50250 .88750 .37750
123 .62750 .75375 .37875
124 .62875 .88125 .25375
125 .75250 .75375 .25250
126 .75375 .88125 .37750
127 .87875 .75375 .37750
128 .88000 .87875 .25250
129 .00750 .00250 .50250
130 .00250 .13000 .62875
131 .13750 .00375 .62750
132 .12750 .12875 .50375
133 .25375 .00375 .50375
134 .25250 .12875 .62875
135 .37750 .00375 .63625
136 .37750 .12750 .50625
137 .50250 .00375 .50250
138 .50500 .12875 .63000
139 .63500 .00250 .62875
140 .63125 .12875 .50250
141 .76000 .00500 .50250
142 .75250 .13000 .62875
143 .87750 .00500 .63500
144 .88750 .13000 .50625
145 .01125 .25500 .50250
146 .00250 .37875 .62750
147 .12750 .25375 .62875
148 .12875 .37750 .50250
149 .25250 .25250 .50875
150 .25375 .37875 .63000
151 .37750 .25250 .62750
152 .37875 .37750 .51250
153 .50500 .25250 .50250
154 .50250 .38750 .63000
155 .63125 .26125 .62875
156 .62750 .38625 .50375
157 .75375 .25375 .51125
158 .75250 .37750 .62875
159 .87750 .25250 .62750
160 .87750 .38125 .50500
161 .01000 .50250 .50250
162 .00375 .63125 .62750
163 .12750 .50375 .62750
164 .13125 .63625 .50875
165 .25375 .50375 .50250
166 .25375 .62875 .62750
167 .37750 .50250 .62750
168 .37875 .63250 .50375
169 .50625 .51000 .50500
170 .50250 .62875 .62750
171 .63500 .50375 .62750
172 .62875 .63250 .50375
173 .75375 .50875 .50750
174 .75375 .63000 .63250
175 .88000 .51125 .62875
176 .87750 .63750 .51250
177 .00500 .75375 .50375
178 .00250 .87750 .62875
179 .13500 .75250 .62875
180 .12875 .87875 .50625
181 .25375 .75250 .50375
182 .25375 .88500 .62750
183 .38000 .75500 .62875
184 .38375 .88750 .50250
185 .51250 .75375 .50375
186 .50500 .88125 .62750
187 .63500 .75250 .63750
188 .62750 .88000 .50625
189 .75500 .75875 .50375
190 .75250 .87750 .62750
191 .87875 .75250 .62750
192 .88500 .88000 .50500
193 .00250 .00625 .75375
194 .00250 .12875 .87875
195 .12875 .00375 .87875
196 .12750 .12875 .75250
197 .25500 .00500 .75250
198 .25375 .13625 .88250
199 .37750 .01000 .87750
200 .37875 .12750 .75500
201 .50500 .00375 .75250
202 .50250 .12875 .88000
203 .62875 .00375 .87875
204 .62750 .13125 .75250
205 .75250 .00375 .75250
206 .75375 .12750 .87750
207 .87875 .00250 .87875
208 .87750 .12875 .75500
209 .00375 .25250 .75250
210 .00375 .38250 .88000
211 .12750 .25500 .88500
212 .13625 .37875 .75500
213 .26250 .25250 .75250
214 .25500 .37875 .87750
215 .38250 .25375 .87875
216 .37875 .37750 .76000
217 .50250 .25500 .75625
218 .50500 .37875 .87875
219 .62875 .25500 .88125
220 .62875 .38000 .75375
221 .75375 .26250 .75375
222 .75250 .38125 .87750
223 .87875 .25375 .88250
224 .87750 .37750 .75500
225 .00500 .50250 .75375
226 .01250 .62750 .87750
227 .12750 .50750 .87750
228 .13000 .62875 .75500
229 .25375 .50250 .75250
230 .25250 .63125 .87750
231 .37750 .50250 .88625
232 .38625 .63000 .75375
233 .50375 .50500 .75250
234 .50500 .63125 .88375
235 .62750 .50250 .88500
236 .63750 .63000 .75375
237 .75250 .50375 .76125
238 .75375 .63625 .87875
239 .88375 .50250 .87750
240 .87875 .62875 .75750
241 .00250 .75250 .75500
242 .00250 .88625 .88625
243 .12875 .75250 .87750
244 .12875 .87750 .75625
245 .25250 .75375 .75500
246 .25250 .88000 .87875
247 .37750 .75250 .87875
248 .37875 .88750 .75375
249 .50375 .76000 .75375
250 .50375 .87875 .87750
251 .63000 .75625 .88000
252 .62750 .88500 .75375
253 .75375 .76125 .75375
254 .75250 .88250 .87875
255 .87875 .75375 .87875
256 .88625 .87875 .75375
