ITEM: TIMESTEP
1529020
ITEM: NUMBER OF ATOMS
256
ITEM: BOX BOUNDS pp pp pp
0 8.0
0 8.0
0 8.0
ITEM: ATOMS id xs ys zs
1 .00750 .01125 .01000
2 .00375 .11500 .11625
3 .11750 .00250 .11500
4 .11875 .11500 .00375
5 .22750 .00875 .00250
6 .22875 .11625 .11500
7 .34625 .00375 .12375
8 .34125 .11625 .00250
9 .50375 .00375 .00250
10 .50625 .13250 .12750
11 .62875 .00500 .12875
12 .62875 .12875 .00250
13 .76000 .00500 .00250
14 .75375 .12875 .13125
15 .87875 .00375 .12750
16 .87875 .12750 .00875
17 .00375 .22875 .00250
18 .00375 .34125 .11625
19 .11750 .22875 .11750
20 .11500 .34000 .00375
21 .22875 .22875 .00500
22 .22875 .34375 .12375
23 .34375 .22875 .11750
24 .34000 .34000 .00625
25 .50250 .25500 .00750
26 .51000 .37875 .12875
27 .62750 .25375 .12875
28 .62875 .38250 .00625
29 .76125 .25500 .00250
30 .75250 .38750 .12750
31 .88375 .25375 .12750
32 .87875 .37750 .00500
33 .00250 .50375 .00250
34 .00375 .62750 .13250
35 .12875 .50250 .12875
36 .12875 .63000 .00500
37 .25250 .50375 .00250
38 .25750 .63125 .12750
39 .37875 .50375 .12875
40 .37875 .62875 .00375
41 .50375 .50375 .00250
42 .50375 .62875 .12875
43 .62750 .50500 .12875
44 .62875 .62875 .00375
45 .75375 .50375 .01125
46 .75250 .62875 .12875
47 .88500 .50250 .12750
48 .88750 .62750 .01250
49 .00375 .75500 .00250
50 .01250 .87750 .13125
51 .12875 .75250 .12875
52 .13000 .87750 .00750
53 .26125 .75625 .01000
54 .25250 .87750 .12750
55 .37875 .75375 .13625
56 .38750 .87750 .00250
57 .50375 .76125 .00500
58 .50375 .87875 .13500
59 .62875 .75250 .13000
60 .62750 .88625 .00250
61 .75375 .75500 .01000
62 .75375 .88250 .13625
63 .87875 .75375 .12875
64 .87750 .87875 .00875
65 .00500 .00375 .22875
66 .00375 .11750 .34375
67 .11500 .00500 .34250
68 .11500 .12000 .22875
69 .22750 .00375 .23375
70 .23000 .12500 .34125
71 .34250 .01000 .34125
72 .34000 .11625 .23750
73 .50500 .00250 .25750
74 .50375 .13500 .37875
75 .62875 .00250 .38000
76 .63625 .13750 .25250
77 .75375 .00250 .25375
78 .75500 .12750 .38000
79 .87875 .00375 .38000
80 .87750 .12875 .25250
81 .00375 .23500 .23500
82 .00375 .34000 .34125
83 .11750 .22750 .34250
84 .11500 .34250 .23000
85 .22750 .22750 .23000
86 .22875 .34250 .34125
87 .34125 .23000 .34000
88 .34125 .34625 .22875
89 .50250 .25375 .25250
90 .50375 .37750 .37875
91 .62875 .25250 .37875
92 .63125 .37875 .25250
93 .75375 .25375 .25250
94 .75375 .37750 .37750
95 .87750 .25250 .37875
96 .87875 .37875 .25500
97 .00375 .50250 .25250
98 .00250 .62750 .37875
99 .12875 .50250 .37750
100 .13000 .62875 .26000
101 .25625 .50750 .25375
102 .25250 .63625 .38625
103 .37750 .50625 .37750
104 .37750 .62875 .25625
105 .50250 .51000 .25375
106 .50250 .63000 .37750
107 .63625 .50250 .37875
108 .62750 .63625 .25250
109 .75500 .50250 .25375
110 .75250 .63000 .38000
111 .88500 .50500 .37750
112 .88125 .62750 .25375
113 .00375 .75250 .25375
114 .00625 .87750 .37875
115 .13250 .75625 .38000
116 .13250 .87750 .25250
117 .25375 .75500 .25375
118 .25250 .87750 .37875
119 .37875 .75375 .37750
120 .37875 .87875 .25375
121 .50250 .75250 .25375
122 .50250 .87875 .37750
123 .62750 .75375 .38500
124 .63125 .88750 .25250
125 .75250 .75250 .25250
126 .76125 .87750 .37875
127 .88750 .76000 .37875
128 .88750 .87875 .25875
129 .00375 .00875 .50375
130 .00250 .12875 .63000
131 .12875 .00500 .62750
132 .13125 .12875 .50250
133 .25250 .00375 .50375
134 .25500 .12875 .62875
135 .38000 .00250 .62750
136 .37875 .12875 .50250
137 .50250 .00250 .51125
138 .50375 .12875 .62875
139 .62750 .00625 .63000
140 .62875 .13375 .50250
141 .75750 .00750 .50250
142 .75250 .13375 .62750
143 .88000 .00250 .62750
144 .87750 .12875 .50250
145 .00375 .25375 .51125
146 .00625 .38375 .63750
147 .12750 .26125 .63750
148 .12875 .38250 .50375
149 .25250 .25250 .50375
150 .25375 .38000 .62875
151 .37875 .25250 .63375
152 .37875 .38000 .50750
153 .50250 .25250 .50500
154 .50375 .37750 .63000
155 .62750 .25375 .62750
156 .62750 .38500 .50250
157 .75250 .25375 .50625
158 .75250 .38250 .63000
159 .87750 .25375 .62750
160 .87875 .38250 .50375
161 .00500 .50375 .50250
162 .00375 .62875 .62750
163 .12750 .50250 .63125
164 .12750 .62750 .50375
165 .26250 .50375 .50250
166 .25500 .62875 .63250
167 .37750 .50500 .62875
168 .37750 .62875 .50250
169 .50375 .50500 .50625
170 .51125 .62875 .63375
171 .62875 .51250 .63125
172 .62875 .62875 .51250
173 .75500 .50375 .51250
174 .75250 .62875 .63500
175 .88625 .50250 .62875
176 .87750 .63000 .50375
177 .01125 .75250 .50250
178 .00375 .87875 .63375
179 .13500 .75625 .62750
180 .12875 .88750 .50250
181 .25500 .75375 .50375
182 .25375 .88375 .62750
183 .38625 .75375 .63375
184 .37750 .87875 .51250
185 .50375 .75375 .50250
186 .50750 .88000 .62875
187 .62750 .75375 .62750
188 .62750 .88000 .50250
189 .75375 .75375 .50500
190 .75500 .87875 .62875
191 .87750 .75875 .62750
192 .87750 .88500 .50625
193 .00250 .01250 .75625
194 .00375 .12750 .87875
195 .13000 .00375 .88000
196 .12750 .12875 .75250
197 .25375 .00375 .75375
198 .25750 .13000 .87875
199 .37750 .00875 .88250
200 .38000 .13375 .75250
201 .50375 .00375 .76000
202 .50250 .12750 .87875
203 .63000 .00500 .87875
204 .62875 .13625 .75250
205 .75250 .00250 .75375
206 .75375 .13250 .87875
207 .87750 .00250 .87750
208 .87875 .12750 .75250
209 .01125 .25500 .75250
210 .00875 .37750 .87750
211 .13750 .25375 .88125
212 .13750 .37875 .75375
213 .25750 .25250 .75375
214 .25500 .37875 .88000
215 .37750 .25375 .87875
216 .37875 .37875 .75250
217 .50250 .25500 .75250
218 .50375 .38375 .87875
219 .63375 .25375 .87750
220 .62875 .37875 .75625
221 .75250 .25875 .75500
222 .75250 .37875 .87750
223 .87875 .25375 .87875
224 .88000 .37750 .75500
225 .00375 .50250 .75250
226 .00500 .63500 .87875
227 .12750 .50250 .87750
228 .13000 .63000 .75375
229 .25250 .50250 .75250
230 .25625 .63750 .87750
231 .38000 .50375 .88000
232 .37750 .63125 .75375
233 .50375 .50250 .75250
234 .50375 .62875 .87875
235 .62750 .50750 .87750
236 .63375 .63000 .75375
237 .75375 .50250 .75375
238 .75250 .63500 .87750
239 .87750 .50625 .87750
240 .88000 .63250 .75375
241 .01250 .75500 .75375
242 .00375 .87750 .88500
243 .12750 .75750 .87750
244 .12750 .87750 .75250
245 .25250 .75375 .75250
246 .25375 .88375 .87750
247 .38375 .75375 .87750
248 .38000 .87750 .75375
249 .50750 .75375 .76000
250 .51250 .88000 .87750
251 .62750 .75250 .88000
252 .62750 .87875 .75375
253 .75250 .75500 .75500
254 .75250 .88125 .87750
255 .87875 .76125 .87750
256 .88000 .88000 .75750
