ITEM: TIMESTEP
1529240
ITEM: NUMBER OF ATOMS
256
ITEM: BOX BOUNDS pp pp pp
0 8.0
0 8.0
0 8.0
ITEM: ATOMS id xs ys zs
2 .00375 .00375 .00375
1 .00625 .11500 .11625
4 .12375 .00375 .11625
3 .11500 .12000 .00375
6 .22750 .00250 .00500
5 .22750 .11625 .12125
8 .34250 .00875 .11625
7 .35000 .12375 .00500
9 .50875 .00375 .00375
10 .50375 .12750 .12875
11 .62750 .00875 .12875
12 .63000 .12750 .00375
13 .75375 .00250 .00250
14 .75375 .12750 .12750
15 .87875 .00375 .13000
16 .87750 .13250 .01000
18 .00250 .23375 .00875
17 .00375 .34125 .11625
20 .11750 .22875 .11625
19 .12250 .34500 .00375
22 .23000 .22750 .00375
21 .23000 .34125 .11625
24 .34125 .22875 .11625
23 .34125 .34125 .00250
25 .51125 .25375 .00375
26 .50250 .37750 .12750
27 .62750 .25375 .13500
28 .63125 .37750 .01125
29 .75250 .25250 .00625
30 .75500 .38625 .13000
31 .88250 .25375 .13375
32 .88125 .37875 .00500
33 .00250 .50250 .00250
34 .00625 .62875 .13375
35 .12875 .50625 .13000
36 .12750 .62875 .00500
37 .25250 .50750 .00250
38 .25750 .63125 .12750
39 .38000 .50250 .12875
40 .37750 .62875 .00875
41 .50375 .50875 .00250
42 .51000 .62750 .12875
43 .62750 .50375 .12875
44 .62750 .62750 .00375
45 .75375 .50250 .00375
46 .75875 .63000 .12750
47 .88250 .50500 .13750
48 .88500 .62750 .00375
49 .00375 .75250 .00250
50 .00250 .87750 .13750
51 .12750 .75250 .12875
52 .12875 .87750 .00375
53 .25375 .75375 .00500
54 .25750 .87750 .12875
55 .37750 .75375 .12750
56 .37875 .87875 .00375
57 .50250 .75375 .00500
58 .50375 .87875 .13750
59 .62750 .75500 .13125
60 .62750 .88500 .01000
61 .75500 .75375 .00375
62 .75500 .87875 .12750
63 .87750 .75250 .12750
64 .88625 .87875 .00500
66 .00375 .00375 .22750
65 .00250 .12125 .34250
68 .12375 .00375 .34000
67 .12250 .11625 .23625
70 .22875 .00375 .22750
69 .22875 .12000 .34000
72 .34000 .01250 .34000
71 .34125 .11625 .22875
73 .50250 .00375 .25375
74 .50375 .13500 .37875
75 .62875 .00250 .37875
76 .62875 .13500 .25375
77 .75500 .00375 .25750
78 .75250 .12750 .37750
79 .87875 .00250 .37875
80 .87875 .12750 .25375
82 .00500 .22875 .23000
81 .00375 .34125 .34250
84 .11625 .22750 .34000
83 .11500 .34000 .22875
86 .22750 .22750 .23000
85 .22750 .34125 .34000
88 .34125 .22875 .34250
87 .34125 .34000 .22875
89 .50500 .25375 .25250
90 .50375 .37875 .37875
91 .63625 .25625 .37750
92 .63375 .37875 .25250
93 .75375 .25500 .25250
94 .75375 .38000 .37750
95 .88125 .25375 .37875
96 .87875 .38750 .26125
97 .00250 .50250 .26250
98 .00250 .63000 .37750
99 .12875 .50375 .37750
100 .13000 .63000 .25500
101 .25375 .51250 .25375
102 .25375 .63375 .37875
103 .38000 .50625 .37875
104 .37750 .63000 .25375
105 .50250 .50250 .25250
106 .50375 .62875 .37750
107 .63000 .50375 .37875
108 .62875 .62875 .26250
109 .76125 .50250 .25250
110 .75375 .62875 .38125
111 .88000 .50375 .38125
112 .87875 .62875 .25500
113 .01125 .75500 .25250
114 .00375 .88750 .37750
115 .12875 .75375 .37750
116 .12750 .87750 .25250
117 .25375 .75250 .25375
118 .25250 .88250 .37875
119 .37875 .75750 .37875
120 .37875 .88500 .25250
121 .50500 .75250 .25250
122 .50500 .88375 .38500
123 .62875 .75375 .37875
124 .62750 .88250 .25250
125 .75500 .75500 .25250
126 .75375 .87750 .38500
127 .88000 .75500 .38000
128 .87875 .87875 .25625
129 .00250 .00750 .50625
130 .00750 .13625 .62750
131 .13000 .00250 .63000
132 .13125 .12750 .50375
133 .25250 .00375 .50875
134 .25375 .13125 .62750
135 .37875 .00250 .63250
136 .37750 .12875 .50250
137 .50250 .00625 .50250
138 .50250 .12750 .62750
139 .62750 .00875 .62750
140 .62875 .12750 .50625
141 .75375 .00750 .50625
142 .75250 .12750 .62750
143 .88375 .00250 .62750
144 .88000 .12750 .50375
145 .00500 .25375 .50250
146 .00375 .37750 .62875
147 .12750 .25250 .62875
148 .12750 .37875 .50375
149 .25375 .25250 .50375
150 .25250 .37750 .62875
151 .37875 .25375 .62750
152 .38000 .38000 .50250
153 .50375 .25500 .50500
154 .51000 .37875 .62875
155 .62875 .25375 .62875
156 .62875 .37875 .50375
157 .75250 .25500 .50375
158 .75375 .37875 .63125
159 .87750 .25250 .62750
160 .87750 .37875 .50500
161 .00375 .50250 .50250
162 .00500 .62750 .63000
163 .13750 .50250 .63000
164 .13375 .62875 .50750
165 .25250 .50500 .51000
166 .25375 .63375 .63000
167 .37875 .50250 .62750
168 .37875 .62750 .50500
169 .50375 .50250 .51125
170 .50375 .62875 .62875
171 .63625 .50250 .62750
172 .62750 .62875 .50375
173 .75750 .50250 .50250
174 .75375 .63250 .62875
175 .87750 .50250 .62875
176 .88750 .62875 .50375
177 .00875 .75875 .50875
178 .00375 .87750 .63750
179 .12750 .76125 .62750
180 .13750 .87750 .50250
181 .25375 .75375 .50375
182 .25375 .87750 .62875
183 .37750 .75375 .62750
184 .38000 .87875 .50500
185 .50375 .75875 .50375
186 .50625 .87875 .62875
187 .62875 .75250 .62750
188 .63250 .87750 .50250
189 .75375 .75500 .50250
190 .75250 .87875 .62750
191 .87750 .75875 .62750
192 .88375 .87750 .51125
193 .00625 .00250 .75875
194 .00250 .13000 .87750
195 .13250 .00375 .88625
196 .13125 .12875 .75250
197 .25375 .01250 .75375
198 .25500 .13000 .87875
199 .38750 .00375 .87875
200 .38750 .13500 .75375
201 .50375 .00250 .75375
202 .50375 .13250 .87875
203 .62875 .00375 .87750
204 .62875 .12750 .75375
205 .75250 .00500 .75375
206 .75500 .12875 .87875
207 .88000 .00375 .87875
208 .87750 .12750 .75250
209 .00375 .25250 .75250
210 .00250 .38000 .87875
211 .12875 .25250 .88375
212 .12750 .37875 .76250
213 .25375 .25375 .76250
214 .25875 .38000 .87750
215 .37875 .25625 .88625
216 .37875 .37750 .75250
217 .50250 .25375 .75375
218 .51250 .38625 .87875
219 .62875 .25375 .87750
220 .63625 .37750 .75250
221 .75250 .25500 .76250
222 .75500 .37750 .88500
223 .87875 .25500 .87750
224 .88000 .38375 .75250
225 .01250 .50375 .75250
226 .00375 .63375 .88375
227 .12750 .50250 .87875
228 .13375 .63375 .75375
229 .25375 .50500 .75250
230 .25375 .62875 .87750
231 .37750 .50500 .87750
232 .37875 .62875 .75375
233 .50250 .50375 .75500
234 .50375 .63000 .87875
235 .62875 .50500 .87875
236 .62875 .63250 .75375
237 .76125 .50375 .75500
238 .75500 .62750 .87750
239 .87875 .50375 .87875
240 .87750 .62750 .75375
241 .00250 .76250 .75375
242 .00500 .87750 .87750
243 .12750 .75250 .87875
244 .13750 .87875 .76250
245 .25625 .75500 .75250
246 .25375 .87875 .87750
247 .38000 .75250 .88750
248 .37875 .87875 .75250
249 .50375 .75500 .75500
250 .50500 .87750 .87750
251 .62875 .76125 .88250
252 .63250 .87875 .75250
253 .75375 .75750 .75500
254 .75500 .88000 .87875
255 .87750 .75250 .87875
256 .87750 .88125 .75250
