ITEM: TIMESTEP
1529440
ITEM: NUMBER OF ATOMS
256
ITEM: BOX BOUNDS pp pp pp
0 8.0
0 8.0
0 8.0
ITEM: ATOMS id xs ys zs
2 .00250 .01000 .00500
1 .00250 .12000 .11625
4 .11500 .00250 .11500
3 .11625 .11625 .00500
6 .23000 .00375 .00375
5 .23000 .12250 .12500
8 .34875 .00375 .11500
7 .34000 .12250 .00375
9 .50375 .00250 .00375
10 .51125 .12750 .13375
11 .62750 .00750 .12875
12 .63625 .12750 .00375
13 .75625 .00500 .00250
14 .75500 .12750 .13000
15 .87750 .00250 .13000
16 .88000 .12750 .00625
18 .00375 .23000 .00375
17 .01250 .34125 .11625
20 .12500 .22875 .11750
19 .11750 .34250 .00375
22 .23750 .23000 .00250
21 .23000 .34875 .11625
24 .34125 .22875 .11625
23 .34125 .34250 .00250
25 .50250 .25250 .00250
26 .50250 .37750 .12750
27 .63625 .25250 .12750
28 .62875 .37875 .00500
29 .75250 .25250 .00375
30 .75375 .37875 .13250
31 .87875 .25375 .12875
32 .88125 .37875 .00250
33 .00375 .50625 .01250
34 .00375 .63375 .13250
35 .13750 .50250 .12750
36 .13250 .62750 .01125
37 .26000 .50250 .00250
38 .25500 .62875 .12875
39 .37875 .50375 .12750
40 .37875 .62875 .00375
41 .50875 .50375 .00250
42 .50250 .62875 .13000
43 .62875 .51125 .12750
44 .62875 .62750 .00250
45 .75750 .50375 .01000
46 .75375 .62875 .12750
47 .88750 .50375 .12750
48 .88125 .62750 .00625
49 .00500 .75250 .00875
50 .00250 .87750 .13000
51 .12875 .75375 .12875
52 .12750 .87750 .00250
53 .25250 .75375 .00250
54 .25250 .87750 .12875
55 .37750 .75750 .12750
56 .37875 .87875 .00250
57 .50375 .75750 .01000
58 .50500 .88000 .12875
59 .62750 .75375 .12750
60 .63750 .88000 .00250
61 .75250 .75250 .00250
62 .75375 .87875 .13625
63 .87875 .75375 .12875
64 .88625 .87750 .00250
66 .00375 .00375 .23750
65 .00250 .11500 .34000
68 .12250 .00500 .34125
67 .11625 .11500 .23250
70 .22875 .00375 .22750
69 .22875 .12500 .34375
72 .34250 .00375 .34000
71 .34000 .12250 .22875
73 .50375 .00500 .25375
74 .50625 .12875 .37750
75 .62875 .01250 .37750
76 .62875 .13625 .25375
77 .76000 .00375 .25250
78 .75875 .13000 .37750
79 .88000 .00250 .37875
80 .87875 .13000 .25250
82 .00500 .22750 .22875
81 .00375 .34125 .34250
84 .11500 .23125 .34000
83 .11625 .34125 .22875
86 .22875 .22750 .22750
85 .22875 .34375 .34000
88 .34000 .22875 .34250
87 .34625 .34125 .22875
89 .50375 .25375 .25250
90 .50250 .38000 .37875
91 .62875 .25250 .38125
92 .62750 .37750 .25500
93 .75250 .26250 .25250
94 .75500 .38000 .37750
95 .88000 .25375 .38000
96 .87875 .38500 .25250
97 .00250 .50500 .25250
98 .00375 .62750 .37750
99 .12875 .50375 .37875
100 .12750 .62750 .26250
101 .25375 .50375 .25250
102 .25250 .62875 .38375
103 .38000 .50375 .38750
104 .37875 .63500 .25250
105 .50250 .50250 .25500
106 .50250 .62750 .38750
107 .63000 .50875 .37750
108 .63750 .63000 .26250
109 .76000 .50250 .25250
110 .75250 .62875 .38625
111 .87875 .51125 .37750
112 .88625 .62875 .25250
113 .00250 .75250 .25375
114 .01250 .87875 .38750
115 .12875 .75250 .37750
116 .12875 .87875 .25375
117 .25500 .75250 .25500
118 .25375 .88375 .37875
119 .37750 .75250 .38000
120 .38000 .87750 .25500
121 .50500 .75250 .25375
122 .50750 .87875 .37875
123 .62875 .75250 .38000
124 .62875 .88125 .25375
125 .75375 .76250 .25625
126 .75250 .88625 .38000
127 .87875 .75750 .37750
128 .87875 .88250 .25375
129 .00750 .00250 .50375
130 .00625 .12875 .62750
131 .12875 .00375 .63000
132 .12875 .12875 .50250
133 .25375 .00500 .50250
134 .25500 .13750 .63625
135 .38625 .00375 .62750
136 .37875 .13250 .50250
137 .50375 .00500 .50375
138 .50250 .12875 .63000
139 .63625 .00375 .62875
140 .62750 .13375 .50375
141 .76000 .00375 .50375
142 .75250 .12750 .62750
143 .87750 .00375 .62750
144 .87750 .12875 .50375
145 .00875 .25375 .50375
146 .00250 .37875 .63000
147 .12750 .25250 .62875
148 .12750 .37875 .51250
149 .26250 .25375 .50250
150 .26250 .37750 .62875
151 .37875 .25250 .63000
152 .37750 .38625 .50375
153 .50375 .25500 .50375
154 .50375 .38000 .62875
155 .63625 .25250 .62750
156 .62875 .38125 .50375
157 .75500 .25375 .50375
158 .76000 .37875 .62750
159 .88625 .25500 .62750
160 .87875 .38250 .50375
161 .00250 .51125 .50250
162 .00250 .63625 .63750
163 .13000 .50375 .62750
164 .13000 .62750 .50500
165 .25375 .50375 .50250
166 .25375 .63000 .63000
167 .37875 .50375 .62750
168 .37875 .62875 .50250
169 .50375 .50500 .50375
170 .50250 .62750 .62875
171 .62750 .50500 .62875
172 .63000 .62875 .50750
173 .75375 .50250 .50875
174 .75375 .62875 .63500
175 .88500 .50250 .63375
176 .88250 .62875 .50250
177 .00625 .75375 .51000
178 .00375 .87875 .63125
179 .12750 .75375 .62875
180 .12750 .87750 .50250
181 .25750 .75375 .50375
182 .25250 .88750 .62875
183 .38625 .75500 .63000
184 .37750 .87750 .50250
185 .50375 .75375 .50250
186 .50250 .87750 .63500
187 .63500 .76000 .62750
188 .63375 .87875 .50250
189 .75750 .76125 .51000
190 .75500 .88000 .62750
191 .87750 .75375 .62875
192 .88250 .88750 .50250
193 .00375 .00250 .75250
194 .00250 .12750 .87875
195 .12750 .00375 .87875
196 .12875 .12875 .75625
197 .25375 .00375 .75375
198 .25375 .12750 .87875
199 .37875 .01000 .87750
200 .38750 .13500 .75250
201 .51000 .00250 .76250
202 .50250 .12750 .87750
203 .62750 .00875 .87875
204 .62750 .12875 .75250
205 .76250 .00250 .75625
206 .75375 .12875 .88750
207 .87875 .01000 .87750
208 .87875 .13000 .75375
209 .00250 .25250 .75375
210 .00250 .37750 .87750
211 .13375 .25250 .88625
212 .12875 .37875 .75250
213 .25250 .25500 .75250
214 .25250 .37875 .88000
215 .37875 .25250 .88500
216 .37875 .37750 .75375
217 .50250 .25250 .75875
218 .50375 .37750 .87750
219 .62750 .26250 .87750
220 .62875 .37750 .75250
221 .75375 .26250 .75375
222 .75750 .38625 .87750
223 .88250 .25375 .88000
224 .88375 .37750 .75250
225 .00375 .50250 .75250
226 .00250 .62750 .87875
227 .12750 .51125 .87750
228 .12875 .63000 .75375
229 .25500 .50375 .75250
230 .25375 .62875 .87875
231 .37750 .51125 .87750
232 .37875 .62750 .75500
233 .50750 .50375 .75375
234 .50375 .62750 .88000
235 .63000 .50375 .88000
236 .62875 .62750 .75250
237 .75250 .50250 .75250
238 .75250 .62750 .87750
239 .88000 .50375 .88750
240 .87875 .62750 .75375
241 .00250 .75250 .75250
242 .00250 .87750 .87750
243 .12750 .75250 .87750
244 .12875 .88000 .75250
245 .26125 .75375 .75500
246 .25375 .88500 .87750
247 .38625 .75250 .87875
248 .37875 .88625 .75375
249 .50625 .75375 .75500
250 .50625 .88000 .88625
251 .62750 .75250 .88250
252 .63000 .88000 .75375
253 .75375 .75500 .75375
254 .75250 .87875 .87875
255 .87750 .75375 .88000
256 .87750 .88250 .75375
