ITEM: TIMESTEP
1529340
ITEM: NUMBER OF ATOMS
256
ITEM: BOX BOUNDS pp pp pp
0 8.0
0 8.0
0 8.0
ITEM: ATOMS id xs ys zs
2 .00250 .00500 .00250
1 .00250 .11500 .11500
4 .11625 .00375 .11625
3 .11625 .11625 .00500
6 .22750 .00250 .00500
5 .22750 .11625 .11625
8 .34125 .00250 .11500
7 .34000 .11500 .00500
9 .50250 .00250 .00250
10 .50375 .12750 .13500
11 .63625 .00375 .13250
12 .62875 .12875 .00250
13 .75500 .00250 .00500
14 .75250 .12875 .13625
15 .87875 .01000 .13625
16 .87875 .13500 .00375
18 .00250 .23500 .01000
17 .00250 .34000 .11500
20 .11625 .22875 .12125
19 .11875 .34125 .00500
22 .22875 .23000 .00375
21 .22875 .34000 .11500
24 .34375 .22750 .11625
23 .34750 .34000 .00500
25 .51000 .26000 .01000
26 .50250 .38625 .13625
27 .62750 .25250 .12875
28 .62750 .38500 .00250
29 .75500 .25375 .00250
30 .75250 .37750 .12875
31 .88000 .25250 .12875
32 .87750 .37750 .00375
33 .01250 .50375 .00375
34 .00375 .62750 .13500
35 .12875 .50750 .12750
36 .12875 .62875 .00750
37 .25250 .50375 .00375
38 .25375 .62750 .12875
39 .37875 .50500 .12750
40 .37750 .62875 .00250
41 .50250 .50250 .00250
42 .50250 .63250 .12750
43 .62875 .50375 .13125
44 .62875 .62750 .00500
45 .75250 .50375 .00375
46 .75250 .62750 .12875
47 .87875 .50875 .12750
48 .87750 .62750 .00250
49 .01250 .75375 .00500
50 .00250 .87875 .12750
51 .12875 .75375 .13000
52 .13125 .88750 .00250
53 .26125 .76125 .00375
54 .26125 .87750 .13000
55 .37875 .75625 .13625
56 .37875 .88750 .00375
57 .51000 .76000 .00250
58 .50250 .87875 .12875
59 .62750 .75250 .12750
60 .62750 .87750 .00250
61 .75625 .75750 .00625
62 .75375 .88500 .13000
63 .87750 .75250 .12875
64 .87750 .87875 .00250
66 .00375 .01125 .22750
65 .00375 .11500 .34125
68 .11625 .00250 .34125
67 .11625 .11625 .23625
70 .22875 .00250 .22875
69 .22875 .12125 .34750
72 .34375 .00250 .34250
71 .34125 .11625 .22750
73 .50875 .00250 .25250
74 .50375 .12750 .38125
75 .62750 .00250 .38375
76 .63500 .13000 .25375
77 .75375 .00500 .25875
78 .75500 .12750 .37750
79 .87875 .00750 .37875
80 .87875 .12875 .25500
82 .00375 .22875 .23000
81 .00250 .34375 .34250
84 .11625 .22750 .34125
83 .11500 .34125 .22875
86 .22750 .22875 .23375
85 .23375 .34000 .34125
88 .34500 .22750 .34875
87 .34875 .34125 .22875
89 .50250 .25375 .25375
90 .50500 .38000 .38500
91 .62750 .25375 .37750
92 .63000 .38250 .25375
93 .75500 .25250 .25250
94 .75375 .38000 .38375
95 .87750 .25375 .37875
96 .87750 .37875 .25375
97 .00500 .50250 .25375
98 .00500 .62875 .37750
99 .12875 .50500 .37875
100 .12875 .62750 .25500
101 .25625 .50250 .26125
102 .25375 .62750 .37875
103 .37750 .50375 .37875
104 .38000 .63125 .25375
105 .50875 .50875 .25250
106 .50250 .62750 .38000
107 .63500 .50250 .37750
108 .62750 .63750 .25250
109 .75250 .50375 .26250
110 .76250 .63000 .37875
111 .87750 .50375 .38000
112 .87875 .62750 .25250
113 .00375 .75500 .25250
114 .00375 .88375 .37750
115 .13000 .75375 .37875
116 .12875 .87750 .25500
117 .25375 .75250 .25250
118 .25500 .87750 .37750
119 .37750 .75250 .37750
120 .38250 .87875 .25250
121 .50250 .75250 .25250
122 .50375 .87750 .37750
123 .62875 .75375 .38375
124 .62875 .87875 .25250
125 .75375 .76000 .25375
126 .75250 .87875 .37875
127 .87750 .75250 .38750
128 .87750 .87750 .25500
129 .00250 .00750 .50375
130 .00375 .12875 .63000
131 .12750 .00250 .63750
132 .12750 .12750 .50250
133 .25375 .00250 .51250
134 .25375 .13250 .62750
135 .37875 .00500 .62875
136 .37750 .12750 .50500
137 .50875 .00375 .50250
138 .50250 .12875 .62875
139 .62750 .00375 .62875
140 .62875 .12750 .50375
141 .75375 .00250 .51250
142 .75250 .12750 .62750
143 .87875 .00375 .63375
144 .87750 .12875 .50500
145 .00250 .25250 .50250
146 .00750 .38125 .62750
147 .12875 .25375 .63000
148 .12875 .38250 .50375
149 .25250 .25500 .50500
150 .25250 .38000 .62875
151 .37750 .25750 .63250
152 .37750 .37750 .50375
153 .50250 .25500 .50375
154 .50250 .38125 .62750
155 .62875 .25625 .62875
156 .63250 .37750 .50375
157 .75250 .25250 .50250
158 .75375 .37875 .63250
159 .88125 .25250 .62875
160 .87750 .37875 .50375
161 .00375 .51000 .50250
162 .01000 .62750 .62750
163 .12750 .50500 .63000
164 .12750 .62875 .50375
165 .25500 .50375 .50375
166 .25375 .63625 .62750
167 .37750 .50500 .63125
168 .38000 .62875 .50250
169 .50250 .50375 .50375
170 .50375 .62750 .62875
171 .62750 .51000 .62750
172 .62875 .62750 .51250
173 .75375 .50625 .50750
174 .75250 .62750 .62750
175 .87750 .50375 .62875
176 .88000 .62875 .50250
177 .00375 .76125 .50250
178 .00625 .88625 .62750
179 .12875 .75375 .63125
180 .12875 .87750 .50250
181 .25375 .75375 .50250
182 .25625 .87750 .63375
183 .37875 .75250 .63000
184 .37875 .87750 .50250
185 .51250 .75375 .50250
186 .50250 .87875 .62875
187 .63000 .75250 .62750
188 .62875 .87750 .50500
189 .75625 .75375 .50250
190 .75375 .87875 .63125
191 .87750 .75250 .63000
192 .87750 .87750 .50375
193 .01000 .00500 .75625
194 .00750 .13375 .87750
195 .12750 .00375 .87750
196 .12750 .12875 .75250
197 .25250 .01250 .75500
198 .25375 .12875 .87875
199 .38000 .00625 .87750
200 .37750 .13000 .75375
201 .50250 .00375 .75500
202 .50250 .12750 .88500
203 .63500 .00250 .88750
204 .63375 .12875 .75375
205 .75375 .00250 .75250
206 .75250 .12875 .87750
207 .88625 .00250 .88125
208 .87750 .12875 .75625
209 .00375 .25250 .75500
210 .00500 .37875 .87875
211 .12750 .25625 .87750
212 .12875 .37750 .75250
213 .25250 .26125 .75375
214 .25250 .38625 .87875
215 .37875 .25375 .87875
216 .37875 .37875 .75375
217 .50250 .25375 .75375
218 .50375 .38750 .87750
219 .63750 .25250 .88000
220 .63625 .37875 .75375
221 .75875 .25250 .75375
222 .76250 .38625 .87875
223 .87750 .25625 .87875
224 .87875 .37750 .75625
225 .00500 .51250 .75375
226 .01125 .62750 .87750
227 .12875 .50375 .87875
228 .13625 .62750 .76125
229 .25375 .50250 .75250
230 .25375 .62875 .87750
231 .38625 .50375 .87875
232 .37875 .62750 .75250
233 .50250 .50250 .75500
234 .50250 .62750 .87875
235 .62750 .51000 .87750
236 .62875 .62750 .75375
237 .76125 .50375 .75375
238 .75375 .62875 .88000
239 .87750 .50500 .87750
240 .87875 .63500 .75375
241 .00250 .75375 .75250
242 .00250 .88000 .88625
243 .12875 .75375 .87750
244 .12750 .88000 .75875
245 .25500 .75250 .75375
246 .26000 .88000 .87875
247 .38750 .75250 .88000
248 .38125 .87875 .75250
249 .50750 .75375 .75250
250 .50375 .87750 .87750
251 .62750 .75375 .88000
252 .62750 .87750 .75250
253 .75250 .75875 .75250
254 .75250 .87875 .87875
255 .87750 .75500 .87875
256 .87750 .88250 .75250
