ITEM: TIMESTEP
1529180
ITEM: NUMBER OF ATOMS
256
ITEM: BOX BOUNDS pp pp pp
0 8.0
0 8.0
0 8.0
ITEM: ATOMS id xs ys zs
2 .00375 .00375 .00375
1 .01125 .11500 .11500
4 .11625 .00250 .12375
3 .12500 .11500 .00875
6 .23000 .00250 .01250
5 .22875 .11625 .11500
8 .34250 .00750 .11625
7 .34875 .11750 .00250
9 .51000 .00500 .00375
10 .50375 .12875 .13000
11 .63125 .01000 .13000
12 .62875 .13625 .00375
13 .76250 .00375 .00375
14 .75375 .12750 .13375
15 .88625 .00500 .12875
16 .87750 .12875 .01000
18 .00375 .22875 .00250
17 .00375 .34000 .11500
20 .11500 .22750 .12375
19 .12375 .34000 .00250
22 .22750 .23375 .00250
21 .22750 .34000 .12250
24 .34125 .22750 .11750
23 .34000 .34375 .00375
25 .51125 .26125 .00250
26 .50375 .37875 .13000
27 .63375 .25375 .13000
28 .63000 .37750 .00500
29 .75375 .25500 .00250
30 .76125 .37750 .12750
31 .88375 .25500 .12750
32 .88750 .38000 .00250
33 .00250 .50375 .00250
34 .00250 .62875 .12750
35 .12750 .50250 .13750
36 .13000 .62750 .00250
37 .25250 .50375 .00750
38 .25625 .62750 .12875
39 .37750 .50500 .12750
40 .37875 .62750 .00375
41 .50250 .50250 .00500
42 .50250 .62750 .12875
43 .62875 .50500 .12875
44 .62750 .62750 .00250
45 .75250 .50250 .00875
46 .75375 .62750 .12750
47 .87875 .50750 .12875
48 .87750 .62875 .00625
49 .00875 .76000 .00375
50 .00500 .88125 .12875
51 .12875 .75250 .13500
52 .12875 .87750 .00375
53 .26125 .75375 .00375
54 .25625 .88125 .12875
55 .37875 .75375 .13500
56 .37750 .88625 .01000
57 .50500 .76125 .01250
58 .50875 .88625 .12750
59 .62875 .75375 .12875
60 .63000 .87875 .01000
61 .75375 .75375 .00750
62 .75250 .87750 .12750
63 .87750 .75250 .13250
64 .88375 .87875 .00250
66 .00375 .00875 .23250
65 .00250 .12000 .34000
68 .11625 .00250 .34125
67 .11750 .11750 .22875
70 .22750 .00500 .22875
69 .23250 .11625 .34000
72 .34125 .00375 .34000
71 .34875 .11625 .22750
73 .50250 .00375 .26125
74 .50375 .12875 .37875
75 .62875 .00500 .38250
76 .62750 .12875 .25375
77 .75500 .00625 .25375
78 .75375 .12875 .37875
79 .87875 .01000 .37750
80 .88250 .13000 .25375
82 .00375 .23000 .23375
81 .00375 .34000 .34125
84 .11500 .22750 .34375
83 .11500 .34125 .22875
86 .23000 .23750 .22750
85 .22875 .34000 .34750
88 .34000 .22875 .34000
87 .34000 .34750 .23750
89 .50250 .25750 .25375
90 .51125 .38125 .38500
91 .62875 .25375 .37750
92 .62750 .38000 .25375
93 .75250 .25250 .25375
94 .75375 .38250 .37875
95 .87875 .25250 .37875
96 .88500 .37875 .25375
97 .00250 .50250 .25375
98 .00625 .62750 .37875
99 .13500 .51000 .37875
100 .12750 .62875 .25375
101 .25250 .50250 .26125
102 .25375 .62875 .38500
103 .38250 .50250 .37875
104 .37750 .62875 .25750
105 .50375 .51250 .25250
106 .50625 .62875 .38000
107 .62875 .50250 .37875
108 .63000 .62750 .25625
109 .76125 .50375 .25500
110 .75500 .62875 .37875
111 .87875 .50375 .37875
112 .87875 .62875 .25375
113 .00375 .76250 .25250
114 .00750 .87875 .37750
115 .12875 .75375 .37750
116 .12750 .87875 .25250
117 .25250 .75375 .25375
118 .25250 .87875 .37875
119 .38375 .75875 .37750
120 .37750 .87750 .25250
121 .50500 .75375 .25375
122 .50375 .87750 .38000
123 .63000 .75375 .38000
124 .62875 .88750 .25375
125 .75375 .75250 .25500
126 .75375 .88000 .37875
127 .87750 .75250 .37875
128 .87750 .87875 .25250
129 .00375 .00375 .50875
130 .00250 .12875 .63000
131 .12750 .00375 .62750
132 .12750 .12875 .50375
133 .25250 .00250 .50500
134 .25375 .13750 .62875
135 .38000 .00250 .62875
136 .37750 .12875 .50250
137 .50250 .00250 .50250
138 .50500 .13750 .62875
139 .62750 .00375 .62875
140 .62750 .12750 .50250
141 .75250 .00250 .50375
142 .76125 .12750 .62875
143 .87750 .00375 .62875
144 .87750 .12750 .51250
145 .00375 .25375 .51000
146 .00250 .38000 .63125
147 .12750 .25375 .62875
148 .13000 .37875 .50375
149 .25500 .25875 .50375
150 .25750 .37875 .62875
151 .37750 .25250 .63375
152 .37875 .38000 .50250
153 .50250 .26125 .50375
154 .50250 .38750 .62875
155 .63125 .25875 .62750
156 .62750 .37750 .50250
157 .75375 .25375 .50375
158 .75500 .37875 .62750
159 .88000 .25375 .62875
160 .88250 .38500 .51250
161 .00250 .50625 .50250
162 .00500 .62875 .62875
163 .13000 .50500 .63750
164 .12875 .62750 .51250
165 .26000 .50250 .50250
166 .26125 .63250 .63125
167 .37750 .50375 .63000
168 .38750 .62875 .50250
169 .50500 .50500 .50250
170 .50250 .63000 .62750
171 .62750 .51125 .63750
172 .63500 .63500 .51250
173 .75375 .50250 .50500
174 .75375 .62750 .63500
175 .88125 .50500 .62750
176 .87750 .62875 .50250
177 .00375 .75250 .50750
178 .00250 .87750 .62750
179 .12875 .76125 .63625
180 .12750 .87875 .50750
181 .25250 .75625 .50500
182 .25375 .87875 .62750
183 .37875 .75250 .62750
184 .37875 .88000 .50250
185 .50375 .75250 .50500
186 .50500 .87875 .62750
187 .62750 .75375 .62875
188 .62750 .88125 .50375
189 .75500 .75375 .50250
190 .75500 .87875 .62875
191 .87750 .75375 .62750
192 .87750 .88000 .50375
193 .00625 .00250 .75500
194 .00250 .12750 .88000
195 .13000 .00375 .87750
196 .12875 .12750 .75375
197 .25250 .00375 .75375
198 .25375 .12750 .87875
199 .37750 .00750 .87875
200 .37750 .12750 .75375
201 .50250 .00500 .75375
202 .51000 .13375 .87750
203 .62750 .00375 .87875
204 .62875 .12750 .75375
205 .75375 .00500 .75375
206 .75250 .12875 .87750
207 .87875 .00875 .87875
208 .87750 .12750 .76000
209 .00375 .25250 .75375
210 .00250 .38375 .87875
211 .13125 .26125 .87875
212 .13500 .38000 .75250
213 .25500 .26125 .75375
214 .25375 .37875 .88000
215 .37750 .25500 .87875
216 .37875 .37750 .75375
217 .50625 .26000 .75250
218 .50750 .37750 .88000
219 .63375 .25375 .87875
220 .62875 .37875 .75375
221 .75250 .25250 .75250
222 .75375 .38625 .87875
223 .87875 .25875 .87875
224 .87750 .37875 .75375
225 .00250 .50375 .76125
226 .00250 .62875 .87750
227 .13750 .50625 .88250
228 .12750 .62750 .75375
229 .26125 .50500 .75250
230 .25375 .62750 .87750
231 .38125 .51000 .87875
232 .37875 .63000 .76250
233 .50375 .50500 .75500
234 .50500 .63000 .88375
235 .63750 .50500 .87875
236 .62875 .62750 .76125
237 .75875 .50250 .75375
238 .75250 .63500 .87875
239 .88500 .50375 .87875
240 .87875 .63250 .75375
241 .01000 .75250 .75250
242 .00375 .87875 .87875
243 .12875 .75500 .87875
244 .12875 .87750 .75375
245 .25250 .76125 .75250
246 .25250 .87750 .87875
247 .37750 .75250 .88000
248 .38500 .87875 .75750
249 .50375 .75250 .75375
250 .50375 .87750 .87875
251 .62750 .75500 .87875
252 .62750 .87875 .75375
253 .75500 .75250 .75375
254 .75250 .87750 .87750
255 .87750 .76250 .88000
256 .88750 .87750 .75375
