ITEM: TIMESTEP
1528460
ITEM: NUMBER OF ATOMS
256
ITEM: BOX BOUNDS pp pp pp
0 8.0
0 8.0
0 8.0
ITEM: ATOMS id xs ys zs
1 .00875 .00375 .00375
2 .00375 .11625 .11500
3 .11625 .00250 .11500
4 .11500 .11625 .01250
5 .22875 .00375 .00375
6 .23750 .12500 .11750
7 .34125 .00375 .11500
8 .34125 .11625 .00375
9 .50250 .00375 .00250
10 .50250 .12750 .13000
11 .62750 .00250 .12750
12 .63500 .13750 .00250
13 .75375 .00375 .00375
14 .75375 .12875 .12750
15 .87875 .00375 .12875
16 .87750 .13250 .00500
17 .00875 .22875 .01125
18 .00375 .34125 .11500
19 .11500 .22875 .11625
20 .11625 .34250 .00500
21 .22750 .23250 .00250
22 .22750 .34125 .12000
23 .34000 .23000 .11500
24 .34000 .34250 .00250
25 .50750 .25250 .01125
26 .50375 .37750 .12875
27 .63750 .25500 .12750
28 .63500 .37750 .00250
29 .75250 .25250 .00250
30 .75250 .38125 .12875
31 .87750 .25250 .13125
32 .87750 .37750 .00250
33 .00500 .50250 .00250
34 .00375 .62750 .12875
35 .12750 .51250 .13375
36 .12750 .62750 .00250
37 .26125 .50250 .00750
38 .25250 .62875 .12875
39 .37750 .50375 .12875
40 .37875 .62750 .00250
41 .50375 .50375 .00375
42 .51250 .62875 .12875
43 .62750 .51125 .12750
44 .62875 .63625 .00250
45 .76250 .50250 .01125
46 .75375 .62750 .12875
47 .87875 .50625 .12750
48 .87875 .62875 .00250
49 .00250 .75375 .01125
50 .01125 .87875 .13250
51 .12875 .75875 .12875
52 .12750 .88000 .00375
53 .25375 .75500 .00250
54 .25250 .87875 .12750
55 .38250 .75250 .12750
56 .37875 .88125 .00875
57 .50250 .75375 .00375
58 .50250 .87875 .12750
59 .62875 .75625 .12750
60 .62750 .87750 .00250
61 .75375 .75250 .00250
62 .75375 .88125 .12750
63 .88000 .75375 .12750
64 .87875 .87875 .00250
65 .00750 .00250 .22750
66 .00250 .11500 .34250
67 .11625 .01250 .34875
68 .11500 .11500 .22875
69 .22875 .00250 .22875
70 .22750 .11625 .34000
71 .34125 .00500 .34000
72 .34125 .11500 .23625
73 .50500 .00250 .25250
74 .50875 .13000 .37750
75 .62875 .00250 .38250
76 .62875 .12750 .25500
77 .75375 .00375 .26000
78 .75500 .13750 .38500
79 .87875 .00250 .37875
80 .88000 .12750 .25250
81 .00375 .22750 .23000
82 .00375 .34000 .34000
83 .11625 .22750 .34125
84 .11500 .34500 .23500
85 .22875 .23250 .22750
86 .23500 .34000 .34125
87 .34250 .22750 .34125
88 .34250 .34500 .22875
89 .51000 .26000 .25250
90 .50250 .38250 .38750
91 .63000 .25375 .37875
92 .62875 .38750 .25375
93 .76125 .25375 .25250
94 .75250 .38750 .37875
95 .87875 .25875 .38000
96 .88250 .37875 .25500
97 .00375 .50250 .25375
98 .00500 .62750 .37875
99 .12750 .50250 .38000
100 .12875 .63000 .25250
101 .25250 .50500 .26000
102 .25500 .62750 .37750
103 .37750 .51000 .37750
104 .37750 .63625 .25375
105 .50750 .51250 .25250
106 .50625 .63250 .37875
107 .62875 .50625 .37875
108 .62750 .62875 .25500
109 .75375 .50250 .25250
110 .75250 .62750 .37875
111 .87875 .50375 .38750
112 .87875 .63000 .25375
113 .00750 .76000 .26125
114 .00250 .87875 .37875
115 .13000 .75875 .37750
116 .12750 .87750 .25375
117 .25250 .75250 .25875
118 .25375 .88000 .37875
119 .37875 .75250 .37875
120 .37875 .87875 .25250
121 .50250 .75250 .25250
122 .50750 .88000 .37750
123 .62750 .75500 .37875
124 .62875 .87750 .25500
125 .75250 .75375 .25375
126 .75250 .88375 .37875
127 .87875 .75375 .37875
128 .87750 .88000 .25500
129 .00625 .00375 .51000
130 .00375 .12750 .62875
131 .13625 .00250 .63000
132 .12875 .12750 .50500
133 .25375 .00375 .50250
134 .25375 .12875 .63625
135 .37875 .00250 .63000
136 .37750 .12750 .50250
137 .50250 .00375 .50250
138 .50375 .12875 .63375
139 .62875 .00500 .62750
140 .62875 .12875 .50375
141 .75375 .00250 .50375
142 .75375 .13625 .62750
143 .87875 .00375 .62750
144 .88750 .12875 .50500
145 .00250 .25250 .50500
146 .00500 .37750 .62750
147 .12875 .25875 .62875
148 .12750 .38000 .50250
149 .25375 .25250 .50375
150 .25375 .38750 .62750
151 .37750 .25875 .63000
152 .37750 .38125 .50375
153 .50375 .26000 .50250
154 .51125 .37750 .63500
155 .62875 .25250 .62875
156 .62875 .38125 .50375
157 .75750 .25375 .50250
158 .75500 .37750 .62750
159 .87875 .25375 .62875
160 .87750 .37875 .50250
161 .01250 .50625 .50375
162 .00875 .62875 .62750
163 .13625 .50250 .62750
164 .12875 .63250 .51125
165 .25375 .50250 .51250
166 .25500 .62750 .63375
167 .37875 .50375 .62875
168 .37875 .62875 .50625
169 .50375 .51250 .50500
170 .50500 .63625 .62875
171 .62750 .51125 .62875
172 .62750 .63000 .51250
173 .75250 .51000 .50250
174 .75375 .62875 .63000
175 .88125 .50250 .62875
176 .87750 .63625 .50250
177 .00250 .76000 .50250
178 .00375 .87750 .63250
179 .12875 .76250 .63375
180 .12875 .87875 .50375
181 .25375 .75500 .50375
182 .26250 .88500 .62875
183 .37750 .75750 .63000
184 .37750 .87750 .50375
185 .50250 .75500 .50250
186 .50500 .87875 .63000
187 .62875 .75500 .62875
188 .63625 .87750 .50250
189 .75375 .75625 .50375
190 .75375 .87875 .63000
191 .88000 .76250 .62875
192 .88750 .87875 .50375
193 .00375 .00500 .75500
194 .00500 .12750 .87875
195 .13000 .00375 .87750
196 .13375 .13375 .75875
197 .25250 .01125 .76250
198 .25375 .12875 .87750
199 .38250 .00375 .87875
200 .38750 .13000 .75375
201 .50250 .00250 .75250
202 .50250 .12875 .87750
203 .62875 .00250 .88750
204 .62750 .13625 .75250
205 .76125 .00250 .76000
206 .75375 .12750 .87875
207 .87750 .00500 .88500
208 .87750 .13000 .75250
209 .00500 .25750 .75500
210 .00250 .38000 .88750
211 .13500 .25250 .87875
212 .12750 .38750 .75250
213 .26125 .25250 .75500
214 .25250 .38000 .88000
215 .37875 .25375 .87750
216 .37875 .37750 .75250
217 .50250 .26125 .75500
218 .50250 .37750 .87750
219 .62875 .25375 .87750
220 .62875 .37875 .75250
221 .75375 .25375 .75375
222 .75250 .38750 .88750
223 .87750 .25250 .87750
224 .88375 .37875 .75375
225 .00250 .50250 .75250
226 .00250 .62750 .87875
227 .12875 .51000 .87875
228 .12875 .63750 .75375
229 .25250 .50375 .75250
230 .26250 .62875 .87875
231 .37750 .50250 .87750
232 .37875 .62750 .75375
233 .50375 .50375 .75500
234 .50250 .62875 .88000
235 .62875 .50375 .87875
236 .62750 .63000 .75500
237 .75250 .50375 .75250
238 .76000 .63750 .88250
239 .87750 .51000 .88750
240 .87750 .62875 .75375
241 .00250 .75375 .75250
242 .00875 .88000 .88250
243 .12875 .75375 .88500
244 .12750 .88000 .75250
245 .25500 .75500 .75500
246 .25250 .87875 .88375
247 .38000 .75375 .87875
248 .37750 .88000 .75375
249 .50375 .75500 .75375
250 .50375 .87875 .87875
251 .62750 .76250 .87875
252 .62875 .87750 .75500
253 .75375 .75375 .75250
254 .75375 .87875 .87750
255 .87875 .75375 .87875
256 .88000 .87750 .75250
