ITEM: TIMESTEP
1528540
ITEM: NUMBER OF ATOMS
256
ITEM: BOX BOUNDS pp pp pp
0 8.0
0 8.0
0 8.0
ITEM: ATOMS id xs ys zs
1 .01000 .00250 .00375
2 .00375 .12125 .11500
3 .12000 .00250 .11625
4 .11500 .11875 .01250
5 .22750 .00375 .00500
6 .22750 .11750 .11500
7 .34125 .00250 .11500
8 .34125 .11500 .00375
9 .51000 .00375 .00250
10 .50375 .12875 .12875
11 .62875 .01000 .12750
12 .62875 .12750 .00375
13 .75250 .00375 .00250
14 .76000 .12750 .12750
15 .87750 .00500 .12750
16 .88750 .13125 .00375
17 .00625 .23000 .00250
18 .00375 .34125 .11625
19 .12500 .22875 .11625
20 .11500 .34250 .00250
21 .23000 .22875 .00250
22 .22750 .34125 .11625
23 .34250 .23000 .12500
24 .34125 .34125 .00375
25 .50500 .25875 .00250
26 .50500 .38500 .12875
27 .62750 .25250 .12750
28 .62875 .37875 .00250
29 .75375 .25500 .00250
30 .75250 .37750 .13250
31 .87875 .25250 .12875
32 .87750 .37750 .00250
33 .01000 .50375 .00250
34 .00750 .62875 .12750
35 .13250 .50500 .12875
36 .12875 .62750 .00250
37 .25250 .50500 .00375
38 .25500 .62875 .13000
39 .37875 .51125 .13000
40 .37875 .63250 .00500
41 .51250 .50375 .00375
42 .50250 .62875 .12750
43 .63625 .50375 .13500
44 .62750 .62750 .00500
45 .75500 .51125 .00250
46 .75250 .62750 .12750
47 .88375 .50375 .13000
48 .88250 .63250 .00375
49 .00250 .75375 .00250
50 .00500 .87875 .13000
51 .12750 .76250 .12875
52 .12875 .87875 .00250
53 .25625 .75500 .00250
54 .25875 .87875 .13000
55 .37875 .75500 .13500
56 .38000 .88625 .00875
57 .50250 .75250 .00375
58 .50250 .88500 .13750
59 .62875 .75375 .12750
60 .62875 .88125 .00250
61 .75375 .75250 .00250
62 .75375 .87875 .13125
63 .87875 .75375 .12875
64 .87750 .87875 .00750
65 .00250 .00625 .22875
66 .00750 .11750 .34000
67 .11625 .00375 .34125
68 .12000 .11625 .22750
69 .23375 .00625 .22750
70 .22750 .11500 .34125
71 .34000 .00250 .34125
72 .34125 .11625 .23000
73 .50250 .00375 .25625
74 .50500 .13125 .38750
75 .63000 .00375 .37750
76 .63375 .12750 .26250
77 .75375 .00250 .25250
78 .75250 .12875 .37750
79 .88750 .00250 .37875
80 .87750 .12875 .25250
81 .00500 .22750 .22875
82 .01250 .35000 .34125
83 .11500 .22875 .34125
84 .11500 .34125 .22750
85 .23375 .22875 .22750
86 .22875 .34000 .34125
87 .34125 .22750 .34125
88 .34125 .34125 .22750
89 .50250 .25375 .25250
90 .50625 .38000 .38750
91 .62750 .25750 .37750
92 .63375 .38375 .25500
93 .75375 .26250 .25250
94 .75500 .37750 .37875
95 .88250 .25250 .37750
96 .88500 .38000 .25500
97 .00375 .50875 .25375
98 .00250 .63750 .38125
99 .12875 .50250 .37750
100 .12750 .62875 .25250
101 .25250 .50250 .25375
102 .25375 .63000 .37750
103 .38750 .50500 .37875
104 .37875 .62750 .25375
105 .50375 .50250 .25250
106 .50375 .63000 .38625
107 .63750 .50375 .37875
108 .62875 .62750 .25625
109 .75500 .50250 .25375
110 .75250 .63000 .37750
111 .87750 .50250 .37875
112 .88000 .62750 .25375
113 .01000 .75875 .25250
114 .00375 .87750 .37750
115 .12750 .75375 .37750
116 .12750 .87875 .25250
117 .25250 .75875 .25250
118 .25250 .87875 .37875
119 .37875 .75250 .37750
120 .37750 .88375 .25875
121 .50500 .75250 .25375
122 .50375 .87875 .37875
123 .62875 .75375 .38000
124 .63375 .87750 .26000
125 .75250 .75250 .25250
126 .76125 .88000 .37750
127 .87875 .75375 .37750
128 .87875 .87875 .25250
129 .00375 .00500 .50250
130 .00375 .12875 .62750
131 .12875 .00250 .62750
132 .12750 .12750 .50375
133 .25250 .00250 .51125
134 .25375 .13250 .62750
135 .37750 .00375 .63500
136 .38250 .12875 .50375
137 .50625 .00375 .51000
138 .50375 .13000 .62875
139 .62875 .00250 .62875
140 .63000 .12750 .50500
141 .75250 .00250 .50500
142 .75375 .12750 .62750
143 .87875 .00250 .62875
144 .87875 .12750 .50250
145 .00250 .25250 .51250
146 .00375 .37750 .62875
147 .12750 .25375 .62750
148 .12750 .37750 .50250
149 .25250 .25375 .50500
150 .25500 .37750 .63750
151 .38500 .25500 .63125
152 .38000 .37750 .51000
153 .50250 .25250 .50375
154 .50375 .37875 .62875
155 .63000 .25250 .62875
156 .62875 .37750 .50250
157 .75375 .25375 .50375
158 .75500 .37875 .62875
159 .88000 .26125 .63000
160 .87750 .37750 .50375
161 .00500 .50250 .51125
162 .00375 .62750 .63125
163 .12750 .51250 .63500
164 .12750 .62875 .50500
165 .25875 .50250 .51250
166 .25500 .62875 .62875
167 .37875 .51250 .63000
168 .37750 .63000 .50375
169 .50500 .50250 .50250
170 .51250 .63250 .63750
171 .62750 .51250 .62750
172 .62875 .63375 .50250
173 .75250 .50875 .50750
174 .75625 .62875 .63125
175 .88000 .50250 .62875
176 .87875 .63250 .50375
177 .00250 .75375 .51250
178 .00250 .88000 .62750
179 .13375 .76000 .62875
180 .13000 .88250 .50375
181 .25375 .75250 .50375
182 .25500 .88000 .62875
183 .37750 .75250 .62875
184 .37750 .88250 .50250
185 .50375 .75250 .50250
186 .50250 .88000 .63500
187 .62750 .75875 .62750
188 .63375 .88375 .50500
189 .75250 .75250 .50500
190 .75500 .88750 .62875
191 .87750 .75500 .62875
192 .87750 .87875 .50375
193 .00375 .00250 .75250
194 .01000 .12750 .87750
195 .12750 .01125 .87875
196 .13000 .12750 .75250
197 .25250 .01125 .75250
198 .25250 .12750 .88250
199 .37875 .00500 .87875
200 .38375 .12750 .76000
201 .50375 .00375 .75375
202 .51250 .13000 .87875
203 .62875 .00250 .88250
204 .62750 .12750 .75250
205 .75375 .00250 .75375
206 .75750 .12875 .88500
207 .88125 .00750 .87875
208 .87875 .12875 .75375
209 .00500 .25375 .75500
210 .00375 .37750 .87875
211 .12750 .26250 .87875
212 .12875 .37875 .75375
213 .25500 .25750 .75375
214 .25250 .37750 .88250
215 .37875 .25375 .87750
216 .37875 .38500 .75375
217 .50375 .25250 .75375
218 .50375 .37875 .87875
219 .62750 .25500 .87875
220 .62875 .38375 .75375
221 .75250 .26000 .75625
222 .75375 .37875 .87875
223 .87750 .25500 .87750
224 .88125 .37875 .76125
225 .00750 .51250 .75375
226 .00250 .63625 .87750
227 .12750 .50250 .88250
228 .13000 .62750 .75750
229 .25375 .50375 .75375
230 .25375 .62750 .87875
231 .37875 .50375 .87750
232 .37750 .62750 .75500
233 .50250 .50375 .75375
234 .51000 .62750 .87750
235 .63125 .50375 .87750
236 .62875 .63375 .76125
237 .76250 .50375 .75250
238 .75250 .62875 .87750
239 .87875 .50500 .87750
240 .87875 .63625 .75375
241 .00250 .75250 .75250
242 .00250 .88000 .87750
243 .12875 .75500 .88125
244 .13625 .87875 .75375
245 .25375 .75375 .75250
246 .25250 .87875 .87750
247 .37750 .75250 .87875
248 .38125 .88000 .75500
249 .50750 .75250 .75375
250 .50500 .88750 .87875
251 .63125 .75750 .87875
252 .62875 .87875 .75250
253 .75375 .75250 .75750
254 .75250 .87750 .87750
255 .87875 .75625 .87875
256 .87875 .88625 .75250
