ITEM: TIMESTEP
1529600
ITEM: NUMBER OF ATOMS
256
ITEM: BOX BOUNDS pp pp pp
0 8.0
0 8.0
0 8.0
ITEM: ATOMS id xs ys zs
2 .00375 .00375 .00250
1 .00250 .12000 .11625
4 .11750 .00250 .11500
3 .12250 .11500 .00625
6 .22750 .00250 .00625
5 .22750 .11500 .12375
8 .34875 .00250 .11500
7 .34125 .12125 .00625
9 .50250 .01000 .00375
10 .50875 .12875 .12875
11 .63250 .00375 .12750
12 .62875 .12750 .00375
13 .75875 .00250 .00375
14 .75250 .12875 .12875
15 .87750 .00250 .12875
16 .87750 .12750 .00375
18 .00500 .22750 .01000
17 .00375 .34000 .11625
20 .12125 .23375 .12000
19 .11750 .34125 .01250
22 .23000 .22875 .00375
21 .22875 .34250 .11750
24 .34125 .22750 .11625
23 .34625 .34125 .00500
25 .50500 .25375 .00375
26 .50375 .37875 .12875
27 .63000 .25625 .12875
28 .62750 .37750 .01000
29 .76250 .25250 .00250
30 .75250 .37875 .12875
31 .87875 .25250 .12875
32 .87750 .38375 .00375
33 .00500 .51000 .00375
34 .01250 .62875 .12875
35 .13000 .50750 .12750
36 .13125 .62750 .01125
37 .26125 .50500 .01000
38 .25500 .62875 .12750
39 .38500 .50375 .12875
40 .37875 .62750 .00250
41 .50500 .51250 .00375
42 .50375 .63375 .12750
43 .62875 .50500 .12875
44 .62750 .62750 .00375
45 .75250 .50625 .00750
46 .75250 .63000 .12750
47 .88625 .50250 .12875
48 .87875 .62875 .00250
49 .00375 .76125 .00250
50 .00250 .87875 .13250
51 .12750 .75875 .12750
52 .13000 .87875 .00250
53 .25375 .75750 .00375
54 .25375 .87875 .12750
55 .38625 .75250 .12875
56 .37875 .87750 .00250
57 .50250 .75250 .00250
58 .50250 .87750 .13000
59 .62875 .75250 .12750
60 .62750 .87875 .00375
61 .75375 .75250 .00250
62 .75875 .87875 .13750
63 .88000 .75250 .12875
64 .87875 .87750 .00250
66 .00250 .00375 .22875
65 .00750 .11625 .34000
68 .11500 .00375 .35000
67 .11625 .11625 .23000
70 .23125 .00375 .22750
69 .22750 .11750 .34625
72 .34125 .00375 .34375
71 .34250 .11500 .22750
73 .50250 .00250 .25375
74 .50375 .12750 .37750
75 .62750 .01250 .37750
76 .62875 .13625 .25375
77 .75250 .00250 .25250
78 .75375 .12875 .37750
79 .88000 .01125 .38750
80 .87750 .12875 .25500
82 .00500 .23000 .22875
81 .00375 .34125 .34250
84 .12375 .22875 .34125
83 .11625 .34000 .22875
86 .23000 .22875 .22875
85 .23125 .34000 .34625
88 .34000 .22875 .34125
87 .34125 .34125 .22875
89 .50250 .25250 .25250
90 .50250 .37875 .37750
91 .62750 .25250 .37875
92 .62875 .37750 .25250
93 .75375 .25375 .25375
94 .75500 .37750 .38125
95 .87875 .25250 .38125
96 .87875 .37875 .25250
97 .00375 .50375 .25375
98 .01000 .62875 .38125
99 .13625 .50500 .37750
100 .12750 .62875 .25250
101 .25250 .50250 .25250
102 .26125 .63750 .37875
103 .37750 .50500 .37875
104 .38125 .63125 .25375
105 .51000 .50625 .26000
106 .50375 .62750 .38625
107 .63750 .50500 .37875
108 .62750 .62875 .25875
109 .75250 .50250 .26000
110 .75375 .62875 .37875
111 .88000 .50500 .38375
112 .88000 .62875 .25500
113 .01125 .75500 .25375
114 .00250 .88250 .38000
115 .13500 .76125 .37875
116 .12750 .88250 .25375
117 .25375 .75500 .25250
118 .25250 .88750 .37750
119 .37875 .75375 .37750
120 .38750 .87750 .25500
121 .50250 .75375 .25250
122 .50375 .87750 .37875
123 .62750 .75375 .38000
124 .62875 .87875 .25875
125 .75500 .75875 .25250
126 .75250 .88000 .37750
127 .87750 .75250 .37875
128 .87750 .88000 .25250
129 .00500 .00250 .50375
130 .01125 .12875 .63625
131 .12875 .00375 .63000
132 .12875 .13000 .50250
133 .25250 .00375 .50250
134 .26125 .12750 .62750
135 .37750 .00375 .62750
136 .37750 .13625 .50375
137 .50250 .00750 .50250
138 .51000 .12750 .62750
139 .62750 .00250 .62750
140 .62875 .13500 .50375
141 .75250 .00500 .50375
142 .75375 .12875 .62875
143 .87875 .01250 .62875
144 .87750 .12875 .50375
145 .00375 .25500 .51250
146 .00375 .37875 .62750
147 .13375 .25375 .62875
148 .13375 .37875 .50375
149 .26125 .25375 .50250
150 .25250 .37750 .62750
151 .37750 .25375 .62750
152 .37750 .38375 .50500
153 .50250 .25375 .50750
154 .50375 .38000 .62875
155 .62875 .25375 .62875
156 .62750 .37750 .50250
157 .75250 .26125 .50250
158 .76000 .37750 .62875
159 .87875 .25875 .62750
160 .87750 .38375 .50500
161 .00250 .50250 .50875
162 .00875 .62750 .62875
163 .12875 .50250 .62750
164 .13250 .62875 .51250
165 .25375 .50500 .50250
166 .25250 .62875 .63125
167 .37750 .50250 .62750
168 .37750 .63000 .50375
169 .50375 .51250 .50250
170 .50250 .62750 .62875
171 .62750 .50250 .62750
172 .62875 .62875 .50250
173 .75750 .50375 .50375
174 .75250 .63750 .63625
175 .87875 .51250 .63000
176 .87750 .63250 .50750
177 .00500 .75750 .50250
178 .01250 .88250 .62875
179 .12750 .75375 .62875
180 .13500 .87750 .50250
181 .25375 .75250 .50375
182 .26250 .87875 .62875
183 .37750 .75375 .63000
184 .37750 .88250 .50625
185 .51125 .75500 .50375
186 .50875 .87750 .62750
187 .62875 .75375 .62875
188 .62875 .88625 .50250
189 .75375 .75250 .50500
190 .75500 .87750 .62875
191 .88625 .75375 .63000
192 .87875 .87750 .50375
193 .00250 .00375 .75375
194 .00375 .13000 .87875
195 .12750 .00375 .88000
196 .13000 .12750 .75500
197 .25625 .00250 .75500
198 .25375 .13000 .87875
199 .37875 .00375 .87750
200 .38375 .12750 .75375
201 .50375 .00375 .75375
202 .50625 .12750 .87875
203 .62750 .00375 .87875
204 .62875 .13125 .75375
205 .75250 .00750 .75375
206 .75250 .12750 .87750
207 .88000 .00375 .87875
208 .88000 .12875 .75375
209 .00250 .25375 .75375
210 .00250 .37750 .87875
211 .12875 .25375 .87750
212 .13250 .38625 .75250
213 .25250 .25250 .75250
214 .26250 .38625 .88000
215 .37750 .25375 .87875
216 .37875 .38500 .75250
217 .50625 .26250 .75250
218 .50250 .38250 .87875
219 .62875 .25500 .87875
220 .62875 .38750 .75375
221 .75500 .25250 .75750
222 .75375 .38250 .87875
223 .88375 .26125 .87750
224 .87750 .37750 .75375
225 .00250 .51125 .75500
226 .01250 .62875 .87875
227 .12750 .50375 .87875
228 .12875 .63000 .75375
229 .26125 .50375 .75500
230 .25250 .62875 .87750
231 .37875 .50250 .87875
232 .37750 .62875 .75250
233 .50875 .50375 .75250
234 .50375 .62875 .88625
235 .63000 .50500 .87750
236 .62750 .63500 .75375
237 .75375 .50500 .75500
238 .75250 .62750 .88250
239 .87875 .50375 .87750
240 .87875 .62750 .75625
241 .00250 .75375 .75375
242 .00250 .87750 .88750
243 .13125 .75250 .88000
244 .12750 .88000 .75875
245 .26250 .76125 .76125
246 .25500 .88000 .87875
247 .38500 .75750 .87750
248 .37750 .88500 .75500
249 .50625 .75250 .75375
250 .50250 .87750 .88250
251 .63250 .75500 .87875
252 .62875 .87750 .75375
253 .75375 .75625 .75625
254 .75250 .88500 .88000
255 .87875 .75250 .87875
256 .87750 .87750 .75250
