ITEM: TIMESTEP
1530000
ITEM: NUMBER OF ATOMS
256
ITEM: BOX BOUNDS pp pp pp
0 8.0
0 8.0
0 8.0
ITEM: ATOMS id xs ys zs
2 .00750 .00750 .00250
1 .00250 .11500 .11750
4 .11625 .01250 .11500
3 .11625 .11625 .00375
6 .22875 .00375 .00750
5 .22875 .11500 .11625
8 .34125 .00500 .12250
7 .34500 .11500 .00375
9 .50875 .00375 .01250
10 .50375 .12875 .12750
11 .63750 .00750 .12750
12 .63500 .13500 .00250
13 .75250 .00375 .00250
14 .75875 .12750 .13250
15 .88500 .00500 .12750
16 .87750 .12875 .01250
18 .00250 .22750 .00375
17 .00375 .34125 .12375
20 .11625 .23000 .11500
19 .11625 .34000 .00500
22 .22875 .23375 .00250
21 .22750 .34625 .12000
24 .34000 .22875 .11625
23 .34000 .34875 .00375
25 .50500 .26250 .00375
26 .50375 .38250 .13000
27 .62750 .25250 .13000
28 .62875 .37875 .00625
29 .75375 .25250 .00375
30 .75375 .38125 .13625
31 .88000 .25250 .12875
32 .87750 .38375 .01125
33 .01250 .50625 .00375
34 .00500 .63000 .12875
35 .13000 .50375 .12875
36 .12875 .62875 .00250
37 .25375 .50250 .00500
38 .25375 .63375 .13500
39 .37750 .50250 .12875
40 .37750 .62875 .00375
41 .50375 .50250 .00500
42 .50250 .62875 .12750
43 .62750 .50375 .12750
44 .62750 .63750 .00250
45 .76125 .50375 .00250
46 .75250 .62875 .12875
47 .87875 .50750 .12750
48 .88750 .63250 .00250
49 .00250 .75500 .00500
50 .00375 .87750 .12750
51 .13375 .75500 .12750
52 .13500 .87750 .00500
53 .25375 .75375 .00875
54 .25250 .88625 .13000
55 .37875 .75250 .12875
56 .38375 .87750 .00375
57 .50375 .75250 .00250
58 .50375 .88375 .12750
59 .63000 .76125 .12750
60 .62875 .87750 .01125
61 .75625 .75500 .00875
62 .75625 .87875 .12750
63 .87875 .75250 .12875
64 .88000 .87750 .00500
66 .00375 .00250 .22875
65 .00250 .11625 .34375
68 .12250 .00375 .34000
67 .11625 .11750 .22875
70 .23125 .00625 .22750
69 .23000 .11625 .35000
72 .34000 .00250 .34125
71 .34750 .11500 .23000
73 .50250 .00375 .25500
74 .50250 .13625 .37750
75 .63625 .00500 .37875
76 .62875 .12875 .25250
77 .75500 .00625 .25250
78 .75250 .12875 .37750
79 .88000 .00375 .37875
80 .88000 .13000 .25500
82 .00250 .23125 .22750
81 .00250 .34625 .34125
84 .11500 .22750 .34125
83 .11625 .34125 .22875
86 .23000 .22750 .22875
85 .22750 .34250 .34125
88 .34000 .23000 .34375
87 .34750 .34125 .22875
89 .50375 .26250 .25250
90 .50875 .37750 .37875
91 .63000 .25250 .38000
92 .63250 .37750 .26250
93 .75500 .25375 .25625
94 .75500 .37750 .38750
95 .88625 .26250 .38750
96 .87750 .37875 .25375
97 .00500 .50250 .25625
98 .00625 .63625 .37875
99 .13125 .50250 .37875
100 .12875 .62750 .25375
101 .25750 .50625 .25375
102 .25250 .63000 .37750
103 .37875 .50500 .37875
104 .37750 .62750 .25250
105 .50250 .51250 .25250
106 .50250 .63500 .38000
107 .62750 .50375 .37875
108 .62750 .63500 .26000
109 .75375 .50250 .25750
110 .75500 .62875 .38625
111 .88000 .50375 .37750
112 .87750 .63250 .25375
113 .00250 .75375 .25375
114 .00375 .88500 .37750
115 .12875 .75250 .37875
116 .12875 .88625 .26250
117 .25375 .75250 .25375
118 .25500 .87750 .37875
119 .37875 .75250 .37750
120 .38125 .87750 .25250
121 .50250 .75250 .25250
122 .50375 .87750 .37875
123 .63500 .75375 .37750
124 .62750 .88375 .25375
125 .76250 .75250 .25875
126 .75875 .87875 .37875
127 .87875 .75250 .37750
128 .87750 .87875 .25500
129 .01250 .00750 .50250
130 .00500 .13000 .63000
131 .13125 .00875 .62750
132 .12750 .12875 .50250
133 .25375 .01250 .50250
134 .25375 .13625 .62750
135 .37875 .00500 .63000
136 .38000 .13500 .50375
137 .50500 .00375 .50250
138 .50750 .13125 .62875
139 .62875 .00250 .62750
140 .63000 .12750 .50375
141 .75375 .00375 .50375
142 .75250 .12750 .62875
143 .87875 .00250 .62875
144 .87750 .12875 .50250
145 .00375 .25625 .50875
146 .00500 .38000 .63000
147 .12875 .25250 .62875
148 .12750 .37750 .50750
149 .25500 .25375 .50250
150 .25250 .37750 .63250
151 .37750 .25625 .63625
152 .37750 .37750 .50375
153 .50250 .25375 .50375
154 .50375 .37750 .62875
155 .62875 .25500 .63625
156 .62875 .37750 .51125
157 .75375 .26125 .50250
158 .75375 .38500 .62875
159 .87875 .25250 .63000
160 .87875 .37750 .50250
161 .00250 .50250 .50250
162 .01125 .62875 .63250
163 .13125 .50375 .62750
164 .12750 .63125 .50500
165 .26000 .50375 .50250
166 .25250 .63375 .63500
167 .38375 .50250 .63250
168 .37875 .63000 .50500
169 .50250 .50375 .50250
170 .50250 .63125 .62875
171 .62750 .50750 .62750
172 .63750 .63500 .50250
173 .75875 .50875 .51250
174 .76000 .62875 .62750
175 .87750 .50250 .62750
176 .88000 .62875 .50500
177 .00250 .75250 .50375
178 .00375 .88375 .62875
179 .13500 .75250 .63000
180 .13625 .88125 .50250
181 .25250 .75250 .50375
182 .26000 .87750 .62750
183 .37875 .75375 .63750
184 .38000 .88000 .50250
185 .50500 .76000 .50375
186 .51250 .88000 .63750
187 .63500 .75250 .62875
188 .62750 .87875 .50375
189 .75250 .75375 .50375
190 .75250 .87875 .62875
191 .87750 .75250 .63375
192 .87875 .87875 .50500
193 .00250 .00250 .75250
194 .01250 .12875 .87875
195 .13125 .00250 .87750
196 .13750 .12875 .75375
197 .25375 .00250 .75375
198 .25375 .12750 .87875
199 .38000 .00250 .87750
200 .38000 .12875 .75625
201 .50375 .00250 .75250
202 .50500 .13500 .87875
203 .62750 .00375 .88000
204 .62750 .13000 .75250
205 .75500 .00500 .75375
206 .75375 .12750 .88625
207 .88000 .01125 .87750
208 .87875 .12750 .75500
209 .00375 .25375 .75250
210 .00375 .38000 .87875
211 .12875 .25375 .88125
212 .12750 .37875 .75375
213 .25250 .25250 .75375
214 .26250 .37875 .87750
215 .37875 .25375 .87750
216 .37875 .38500 .75500
217 .50375 .25375 .76250
218 .50250 .37875 .88375
219 .62750 .25500 .87750
220 .63000 .37875 .75250
221 .75375 .25375 .75250
222 .75500 .38000 .87875
223 .87875 .25875 .87750
224 .87875 .37875 .75250
225 .00375 .50375 .76250
226 .00250 .62875 .87750
227 .12875 .50500 .88000
228 .12750 .63625 .75375
229 .25250 .50250 .75375
230 .25375 .62750 .87750
231 .37875 .50500 .87750
232 .38375 .62750 .75250
233 .50375 .50250 .75500
234 .50875 .63625 .87875
235 .62875 .50375 .88000
236 .63000 .62750 .75375
237 .75250 .50375 .75375
238 .75375 .62875 .87875
239 .87750 .50375 .88000
240 .88000 .62750 .75250
241 .00375 .75500 .75250
242 .00875 .87875 .87875
243 .13125 .75375 .87875
244 .12875 .87750 .76000
245 .25375 .75250 .75375
246 .26250 .88375 .87875
247 .37875 .75250 .88125
248 .37875 .87875 .75375
249 .50500 .76125 .75375
250 .50250 .87875 .87875
251 .62750 .75375 .88000
252 .62875 .87875 .76125
253 .75375 .75375 .75625
254 .75250 .87750 .88000
255 .87875 .75250 .87750
256 .88375 .87750 .75375
