ITEM: TIMESTEP
1529700
ITEM: NUMBER OF ATOMS
256
ITEM: BOX BOUNDS pp pp pp
0 8.0
0 8.0
0 8.0
ITEM: ATOMS id xs ys zs
2 .00375 .01250 .00500
1 .00750 .11500 .12500
4 .11625 .00250 .11750
3 .11625 .11750 .00500
6 .22750 .00250 .00250
5 .22750 .11500 .11500
8 .34125 .00375 .11625
7 .34000 .12250 .00375
9 .50250 .01125 .00375
10 .50375 .12750 .13625
11 .63500 .00750 .13750
12 .63625 .12750 .01125
13 .75375 .00750 .00375
14 .75375 .13750 .12750
15 .88125 .00875 .12750
16 .88750 .12750 .00500
18 .00250 .22875 .01000
17 .00375 .34000 .12250
20 .11625 .22875 .11625
19 .11500 .34125 .00375
22 .23375 .23000 .00250
21 .23000 .34000 .11500
24 .34000 .22875 .11750
23 .34625 .34875 .01000
25 .50250 .25500 .00875
26 .50250 .38750 .12875
27 .62750 .25625 .12875
28 .62750 .37875 .00250
29 .76000 .25500 .00250
30 .75875 .37750 .12750
31 .88250 .25375 .13125
32 .88500 .37750 .00500
33 .00750 .50250 .00250
34 .00250 .62875 .12750
35 .12875 .50250 .13000
36 .13000 .62750 .01000
37 .25750 .50250 .01000
38 .25375 .62750 .12875
39 .38375 .50500 .12750
40 .38250 .62750 .00500
41 .50250 .50250 .00375
42 .50500 .63000 .12875
43 .62875 .50750 .12750
44 .62875 .63500 .00375
45 .75375 .50250 .00250
46 .75375 .62750 .13000
47 .87750 .50375 .13750
48 .88250 .62750 .00375
49 .00375 .75375 .00500
50 .00250 .88625 .12750
51 .12875 .75250 .12750
52 .13000 .88000 .00250
53 .25250 .75375 .00375
54 .25500 .87750 .13125
55 .37875 .75250 .12750
56 .37750 .88625 .00250
57 .50375 .75250 .00375
58 .50375 .87750 .12875
59 .63250 .75250 .12875
60 .62875 .88000 .00375
61 .75500 .75625 .00375
62 .75875 .87875 .13250
63 .87875 .75250 .12750
64 .87750 .87750 .00250
66 .00250 .00250 .22875
65 .01250 .12125 .34125
68 .11750 .00375 .34000
67 .11625 .11500 .23250
70 .23750 .00250 .22750
69 .22875 .11500 .34000
72 .34250 .00375 .35000
71 .34875 .12500 .22750
73 .50375 .00250 .25375
74 .50375 .13000 .37875
75 .62750 .01125 .37750
76 .63250 .12875 .25250
77 .75250 .00375 .25500
78 .75375 .12750 .37875
79 .88000 .01125 .37875
80 .88000 .12750 .25250
82 .00375 .23500 .23000
81 .00250 .34750 .34125
84 .12125 .23500 .34250
83 .11500 .34000 .23250
86 .23625 .22750 .22875
85 .22875 .34250 .34000
88 .34125 .23250 .34125
87 .34125 .34125 .22875
89 .50375 .25250 .25500
90 .50625 .37750 .37875
91 .62875 .25375 .37875
92 .63000 .38375 .25375
93 .75250 .25250 .25375
94 .75375 .37875 .38125
95 .87750 .25375 .37750
96 .87875 .38375 .25625
97 .00500 .50500 .25250
98 .00250 .62750 .37875
99 .13250 .50500 .37750
100 .12750 .62875 .25250
101 .25250 .50375 .25250
102 .25250 .62750 .37750
103 .38000 .50500 .38250
104 .38375 .62750 .25250
105 .50250 .50375 .25250
106 .50250 .62750 .37750
107 .63000 .50750 .37750
108 .62875 .62750 .26000
109 .75250 .50500 .25250
110 .75375 .62750 .37750
111 .87750 .50375 .38375
112 .87875 .62750 .25375
113 .00375 .75500 .25250
114 .00375 .87750 .38750
115 .12750 .75250 .37875
116 .13500 .88625 .26000
117 .25250 .75375 .25375
118 .25375 .88000 .38250
119 .37875 .75375 .37750
120 .38375 .87750 .26125
121 .50375 .75250 .25500
122 .50375 .87750 .37750
123 .62750 .75375 .37875
124 .62750 .87875 .25500
125 .75375 .75250 .25250
126 .75250 .88250 .37750
127 .87750 .76000 .37875
128 .88500 .87875 .25250
129 .00375 .00375 .50250
130 .00375 .12875 .62750
131 .12750 .00250 .62750
132 .12875 .12875 .50500
133 .25250 .00875 .50250
134 .25250 .12750 .63750
135 .38625 .00375 .62750
136 .37750 .12750 .50375
137 .50250 .00375 .51000
138 .50250 .13250 .63000
139 .63000 .00250 .62875
140 .62750 .12875 .50500
141 .75250 .00375 .50375
142 .75500 .13125 .63750
143 .87875 .00250 .62750
144 .88000 .13000 .50250
145 .00375 .25375 .50375
146 .00375 .37750 .62875
147 .12750 .25375 .62875
148 .12750 .38125 .50375
149 .25250 .25250 .50250
150 .25375 .37875 .63000
151 .37875 .25500 .62750
152 .37875 .38500 .50250
153 .51125 .25375 .50375
154 .50250 .37875 .63500
155 .62750 .25375 .62875
156 .62875 .37875 .50375
157 .75250 .25250 .50375
158 .75250 .37750 .62750
159 .88500 .25375 .63000
160 .87750 .38000 .50250
161 .00375 .50250 .50375
162 .01000 .63000 .62750
163 .12875 .50250 .63000
164 .12875 .62875 .50375
165 .25375 .50250 .50375
166 .25250 .62875 .63750
167 .38375 .50375 .62875
168 .37750 .63125 .50375
169 .50250 .51000 .50250
170 .50375 .62875 .63125
171 .63250 .50250 .62750
172 .62750 .62875 .50250
173 .75875 .50375 .50250
174 .75625 .62875 .62750
175 .87750 .50250 .62875
176 .87875 .62750 .50375
177 .00500 .75375 .50375
178 .00500 .87750 .63250
179 .12750 .75375 .62750
180 .12875 .88125 .51000
181 .25250 .75250 .51000
182 .25750 .88750 .63000
183 .38750 .75250 .63375
184 .37875 .88000 .50250
185 .50625 .75500 .50375
186 .50250 .87875 .63000
187 .63500 .75250 .63000
188 .62750 .87750 .50500
189 .75250 .75250 .50250
190 .75250 .87875 .62875
191 .88125 .75375 .62750
192 .87750 .87875 .50375
193 .00375 .00375 .75250
194 .00375 .12750 .87750
195 .13750 .00250 .87750
196 .12750 .12875 .75625
197 .25375 .00750 .76000
198 .25500 .13375 .87750
199 .38000 .00375 .87750
200 .37750 .13750 .75250
201 .50375 .00500 .75500
202 .50250 .12875 .88375
203 .62750 .00250 .87750
204 .62750 .13250 .75250
205 .75250 .00250 .75250
206 .75250 .12750 .88125
207 .88625 .00375 .88625
208 .87750 .13000 .75875
209 .00250 .26125 .75750
210 .00500 .38125 .88750
211 .12750 .26000 .88750
212 .12750 .37750 .75500
213 .25375 .25375 .75375
214 .25375 .38500 .87750
215 .37875 .25375 .87875
216 .37750 .37750 .76250
217 .50500 .25375 .75375
218 .50375 .37750 .88750
219 .62875 .25250 .87875
220 .62875 .38125 .75500
221 .75250 .25375 .75500
222 .76000 .37750 .87750
223 .88250 .25375 .87875
224 .88625 .37875 .75250
225 .00500 .50375 .75250
226 .00625 .62750 .88000
227 .12750 .50250 .87875
228 .12875 .62750 .75625
229 .25375 .50750 .75375
230 .26125 .63250 .87750
231 .37750 .50250 .88500
232 .38125 .62750 .75250
233 .50375 .50250 .75500
234 .50250 .62750 .88750
235 .62875 .50250 .87875
236 .63625 .62875 .75375
237 .76000 .50375 .75375
238 .76000 .62875 .87750
239 .87875 .50625 .88000
240 .87750 .62875 .75375
241 .01250 .75250 .75250
242 .00375 .87750 .87875
243 .12750 .75250 .87750
244 .12875 .88000 .76250
245 .25250 .75500 .75500
246 .26125 .87875 .87750
247 .38250 .75250 .87875
248 .38000 .87750 .75250
249 .50500 .75250 .75375
250 .51250 .87875 .87875
251 .62750 .75375 .87875
252 .62750 .88000 .75750
253 .75500 .75625 .75375
254 .75625 .87750 .88375
255 .87875 .75250 .87750
256 .87875 .87750 .76250
