ITEM: TIMESTEP
1528600
ITEM: NUMBER OF ATOMS
256
ITEM: BOX BOUNDS pp pp pp
0 8.0
0 8.0
0 8.0
ITEM: ATOMS id xs ys zs
1 .00875 .00375 .01125
2 .00375 .12375 .11625
3 .12000 .00375 .11625
4 .11500 .11500 .00250
5 .22875 .00750 .00375
6 .23375 .12250 .11500
7 .34250 .00750 .11500
8 .34250 .11875 .00250
9 .50375 .00500 .00250
10 .50250 .13500 .12750
11 .63000 .00500 .12750
12 .63750 .12750 .00875
13 .75500 .00250 .00250
14 .75375 .13250 .12750
15 .88250 .00375 .13625
16 .87750 .12875 .00375
17 .00500 .22750 .01125
18 .00250 .34000 .11500
19 .11625 .22750 .11750
20 .11500 .34000 .00250
21 .22750 .23125 .00375
22 .23000 .34000 .12500
23 .34000 .23750 .11875
24 .34250 .34000 .00375
25 .50625 .25250 .00375
26 .50250 .38625 .12750
27 .62875 .25375 .13750
28 .62750 .37875 .00500
29 .75250 .25250 .00250
30 .75250 .38000 .12750
31 .87875 .25250 .12750
32 .87750 .38250 .01000
33 .00375 .50250 .00250
34 .00250 .62875 .12750
35 .12750 .50250 .13000
36 .13500 .62875 .00250
37 .25875 .50375 .01000
38 .25625 .63500 .12875
39 .37750 .50250 .13000
40 .38375 .63750 .01000
41 .50250 .50500 .00375
42 .50250 .62750 .12875
43 .63000 .50250 .13125
44 .62875 .62875 .00375
45 .75250 .50375 .01000
46 .76250 .63125 .12875
47 .87875 .50250 .12875
48 .87750 .62875 .00750
49 .00250 .75375 .00375
50 .00250 .87750 .12875
51 .12750 .75250 .13500
52 .12875 .88250 .00250
53 .26125 .75500 .00250
54 .25375 .87875 .13125
55 .37875 .75875 .12750
56 .37875 .87750 .01000
57 .50250 .75250 .00250
58 .50375 .87750 .12750
59 .62875 .75375 .12750
60 .62750 .88000 .00375
61 .76000 .75375 .00375
62 .75500 .87875 .13000
63 .88625 .75250 .12875
64 .88375 .87750 .00375
65 .00250 .00375 .22875
66 .00250 .11625 .34250
67 .11500 .00250 .34250
68 .12000 .11625 .22750
69 .22750 .00375 .22875
70 .22750 .11500 .34125
71 .34000 .00500 .34125
72 .34875 .12500 .22875
73 .50250 .00375 .25375
74 .50500 .12875 .37750
75 .63250 .00375 .37875
76 .62750 .12875 .25375
77 .75500 .00250 .25375
78 .75250 .13000 .37875
79 .87875 .00750 .38000
80 .87750 .12750 .25375
81 .00375 .22875 .22750
82 .00250 .34500 .34000
83 .11500 .22875 .34000
84 .11500 .34125 .22750
85 .23125 .23375 .22750
86 .22750 .34000 .34000
87 .34375 .22750 .34125
88 .34125 .34250 .22750
89 .50250 .25500 .25250
90 .50250 .37875 .37750
91 .62750 .25625 .37750
92 .62875 .38500 .26000
93 .76125 .25375 .25250
94 .75250 .38625 .38000
95 .87875 .25375 .37875
96 .88375 .37750 .25375
97 .00375 .51125 .25375
98 .01000 .62875 .37750
99 .12875 .50375 .37750
100 .12750 .62750 .25375
101 .25375 .50375 .25375
102 .25250 .62875 .37875
103 .37875 .50375 .38125
104 .38000 .63000 .25250
105 .50375 .50375 .25500
106 .50250 .62875 .38250
107 .62750 .50375 .37875
108 .63000 .62875 .25250
109 .75375 .51125 .25375
110 .75250 .62750 .37750
111 .87750 .50375 .37750
112 .87875 .62750 .25375
113 .00375 .76125 .25500
114 .00250 .87875 .38375
115 .12875 .75750 .37875
116 .12750 .88250 .25375
117 .25750 .75500 .25250
118 .25375 .87875 .37750
119 .37750 .75250 .37750
120 .38000 .87750 .25250
121 .50500 .75500 .25875
122 .50250 .87875 .37750
123 .62875 .75375 .38625
124 .62750 .87875 .25250
125 .75375 .75500 .25625
126 .75625 .87750 .37750
127 .88125 .75500 .38000
128 .88375 .87750 .25250
129 .00250 .00375 .50250
130 .00250 .12875 .62875
131 .12750 .00250 .62875
132 .12750 .12875 .50750
133 .25375 .00750 .50250
134 .25500 .12750 .62750
135 .38000 .00250 .63625
136 .37875 .12875 .50250
137 .50375 .00500 .50250
138 .50250 .12875 .62750
139 .62875 .00500 .63125
140 .62875 .12875 .50500
141 .75375 .00250 .50250
142 .75500 .13000 .63500
143 .88000 .00375 .63000
144 .87750 .12875 .50375
145 .01125 .25250 .50750
146 .00250 .38000 .63250
147 .12875 .25250 .63000
148 .12750 .38500 .50375
149 .25375 .25250 .50250
150 .25375 .37875 .62750
151 .38500 .25750 .62750
152 .37750 .38125 .50250
153 .50250 .25250 .50250
154 .51250 .38750 .62875
155 .62875 .25250 .63500
156 .62875 .37750 .50500
157 .75375 .25375 .50250
158 .75250 .37750 .62750
159 .88000 .25250 .62750
160 .87750 .37875 .50500
161 .01125 .50250 .50500
162 .00375 .62875 .62875
163 .12750 .50250 .62875
164 .13000 .63000 .50500
165 .25375 .50375 .50375
166 .25375 .62875 .62875
167 .37750 .51000 .63000
168 .37750 .63000 .50375
169 .50250 .50375 .50375
170 .50250 .62750 .63625
171 .62875 .51125 .63125
172 .62875 .63000 .50875
173 .75375 .50500 .50750
174 .75250 .62875 .62750
175 .87750 .50250 .62750
176 .87750 .62750 .50250
177 .00500 .75375 .51125
178 .00250 .87750 .62875
179 .12875 .75500 .63000
180 .13000 .87875 .50375
181 .25750 .75250 .50375
182 .26250 .87750 .62875
183 .37875 .76000 .62875
184 .37875 .88000 .51000
185 .50250 .75250 .50375
186 .50375 .87750 .62875
187 .62875 .75625 .62875
188 .62750 .88375 .50500
189 .75250 .75375 .50750
190 .75375 .88500 .63000
191 .87750 .75375 .63125
192 .88000 .88625 .50375
193 .00250 .00500 .75250
194 .00250 .13625 .87875
195 .12875 .00375 .87750
196 .13125 .12875 .75500
197 .25375 .00375 .75375
198 .25375 .13000 .88000
199 .37750 .00250 .88000
200 .37875 .12750 .75250
201 .50375 .00250 .75250
202 .50250 .13250 .87750
203 .62875 .00250 .87875
204 .63125 .12750 .75875
205 .75250 .00500 .75500
206 .75250 .13000 .88125
207 .88750 .00375 .87875
208 .87750 .12750 .75500
209 .00250 .25375 .75250
210 .00375 .37875 .87875
211 .13625 .25500 .88000
212 .12875 .37750 .75375
213 .25375 .25375 .75250
214 .25375 .38000 .88500
215 .38250 .25500 .88000
216 .37875 .37750 .75375
217 .50375 .25375 .76250
218 .50250 .37750 .87875
219 .62875 .26000 .87750
220 .63625 .38000 .75250
221 .75250 .25375 .75375
222 .75375 .38000 .87875
223 .88500 .25625 .87875
224 .87875 .37875 .75250
225 .00375 .50375 .75375
226 .00250 .63375 .87875
227 .13750 .51125 .88250
228 .13375 .63750 .75750
229 .25500 .50250 .75250
230 .25375 .62750 .87875
231 .38375 .50375 .88000
232 .37875 .63500 .75375
233 .50375 .51250 .75500
234 .50250 .63000 .87750
235 .62750 .50250 .87875
236 .62875 .62750 .75250
237 .75375 .50375 .75250
238 .75250 .62750 .88500
239 .87750 .50250 .87750
240 .87750 .63000 .75250
241 .00625 .75500 .76250
242 .00250 .87875 .88500
243 .13000 .75375 .88000
244 .12875 .87875 .75375
245 .25250 .75375 .76000
246 .25375 .87875 .88750
247 .37875 .75500 .87750
248 .37875 .87750 .75375
249 .50625 .75750 .75375
250 .50250 .87875 .88375
251 .62750 .75250 .87750
252 .62875 .87875 .75625
253 .75500 .75375 .75500
254 .75875 .87875 .88125
255 .87875 .75375 .87875
256 .87875 .87750 .75250
