ITEM: TIMESTEP
1529060
ITEM: NUMBER OF ATOMS
256
ITEM: BOX BOUNDS pp pp pp
0 8.0
0 8.0
0 8.0
ITEM: ATOMS id xs ys zs
1 .00500 .00375 .00500
2 .00250 .11500 .11625
3 .11750 .00375 .11625
4 .11625 .11625 .00500
5 .22750 .00250 .00750
6 .22750 .11750 .11500
7 .34125 .00375 .12375
8 .34000 .11500 .00375
9 .50625 .00250 .00500
10 .50750 .12875 .13125
11 .62750 .00750 .12875
12 .62875 .12875 .00375
13 .75500 .00250 .00500
14 .75250 .12875 .13125
15 .87750 .00750 .12875
16 .87875 .12750 .00375
17 .01250 .22750 .01125
18 .00250 .34125 .11625
19 .11750 .22750 .11500
20 .11750 .34500 .00250
21 .23375 .22750 .00625
22 .22750 .34000 .12125
23 .34125 .22875 .11625
24 .34000 .34125 .01125
25 .50250 .25875 .00250
26 .51250 .37750 .12750
27 .62750 .25250 .13000
28 .62750 .38125 .00375
29 .75250 .25375 .00250
30 .75250 .37875 .13625
31 .87875 .26125 .12875
32 .87750 .37875 .01125
33 .00250 .50250 .00375
34 .01125 .63500 .12750
35 .13000 .51000 .12875
36 .12750 .62750 .00250
37 .26125 .50375 .00250
38 .26250 .62750 .13000
39 .38750 .51000 .12750
40 .37875 .62875 .00500
41 .50375 .50375 .01125
42 .50250 .62750 .12875
43 .63375 .50500 .12750
44 .63250 .63000 .00500
45 .75250 .50250 .00375
46 .75500 .62750 .13375
47 .88250 .50375 .12750
48 .88750 .62875 .00375
49 .00375 .75250 .00375
50 .00375 .88000 .12750
51 .12750 .75375 .12750
52 .12875 .88250 .00375
53 .25375 .76125 .00250
54 .25375 .87750 .12875
55 .37875 .75500 .12875
56 .38125 .88500 .00250
57 .50250 .75250 .00250
58 .51000 .87750 .12750
59 .62875 .75375 .13000
60 .63500 .87875 .00625
61 .75250 .75250 .00500
62 .75875 .87875 .12750
63 .87750 .76250 .13250
64 .87750 .88625 .00375
65 .00250 .00375 .22750
66 .00250 .11500 .34750
67 .11875 .00375 .34125
68 .11500 .11500 .22750
69 .22750 .01250 .22875
70 .22875 .12250 .34000
71 .34375 .00750 .34125
72 .34250 .11750 .22875
73 .50250 .00250 .26000
74 .50375 .12875 .37750
75 .62750 .00375 .38375
76 .63625 .13000 .25250
77 .75875 .00625 .26125
78 .75875 .12750 .37875
79 .88375 .01000 .37875
80 .87875 .13000 .25500
81 .00375 .23250 .23500
82 .00750 .34750 .34250
83 .12000 .22750 .34125
84 .11500 .34125 .22875
85 .22750 .22750 .22875
86 .22750 .34250 .34000
87 .34125 .22750 .34125
88 .34000 .34125 .22875
89 .50250 .25375 .25375
90 .50375 .37750 .38125
91 .62750 .25375 .37750
92 .62875 .37750 .25375
93 .75250 .25250 .25625
94 .75500 .37875 .37750
95 .87750 .26125 .37875
96 .87750 .37875 .25375
97 .00500 .50250 .25375
98 .00375 .63625 .37875
99 .13375 .50500 .37750
100 .13125 .62875 .25375
101 .25375 .50250 .25625
102 .25250 .63500 .38250
103 .37750 .50375 .38375
104 .37750 .62875 .25250
105 .50500 .50875 .25250
106 .50375 .63250 .38750
107 .62750 .51125 .37750
108 .62875 .62875 .25375
109 .76000 .50250 .25250
110 .75625 .62875 .37750
111 .88500 .50375 .37875
112 .87750 .62875 .25375
113 .00500 .75375 .25500
114 .00875 .87750 .38000
115 .12750 .76000 .37750
116 .12875 .88750 .25375
117 .25375 .76125 .25250
118 .25375 .87750 .37875
119 .37750 .75500 .37750
120 .37875 .88500 .25250
121 .50500 .76000 .25375
122 .50375 .88375 .37875
123 .63000 .75375 .37875
124 .62875 .87875 .25250
125 .76250 .76125 .25500
126 .75375 .87750 .38250
127 .88375 .75875 .38000
128 .87875 .87750 .25250
129 .00375 .00750 .50250
130 .01000 .13000 .63000
131 .13250 .00250 .62750
132 .12750 .12750 .50375
133 .25875 .00375 .50375
134 .25500 .12750 .62875
135 .37750 .00250 .63000
136 .37875 .12750 .50375
137 .50250 .00250 .50250
138 .50500 .12875 .63000
139 .62875 .00375 .63625
140 .62875 .13375 .50250
141 .75250 .00375 .51250
142 .75375 .13000 .63250
143 .87750 .00375 .63000
144 .87875 .12875 .50375
145 .00375 .25500 .50500
146 .00250 .38000 .63250
147 .12750 .26250 .62750
148 .13500 .38000 .50250
149 .25500 .25375 .50500
150 .25500 .38000 .62750
151 .37875 .25375 .63750
152 .38000 .37875 .50875
153 .51250 .25375 .50875
154 .50625 .37750 .63625
155 .62875 .25750 .63125
156 .62875 .37875 .50250
157 .75250 .25250 .50375
158 .75250 .37750 .63500
159 .88000 .25375 .62875
160 .88125 .37875 .51250
161 .00375 .50375 .50625
162 .00375 .62875 .62750
163 .13125 .50250 .63625
164 .13000 .62750 .51250
165 .25500 .50250 .50250
166 .25250 .62875 .62750
167 .37750 .51000 .62750
168 .38500 .62750 .50375
169 .50375 .50375 .50250
170 .50375 .63625 .62875
171 .63500 .51000 .63250
172 .63000 .63250 .50250
173 .75250 .50375 .51000
174 .75500 .62750 .63000
175 .87750 .50250 .62875
176 .87750 .62750 .50750
177 .00250 .75250 .50250
178 .00375 .88000 .62750
179 .12750 .75500 .63625
180 .13500 .88250 .51125
181 .25250 .75250 .50250
182 .25375 .88750 .63625
183 .37875 .75250 .63000
184 .38625 .87875 .50625
185 .50250 .75250 .50375
186 .50375 .87875 .62750
187 .62750 .75250 .62875
188 .62750 .87750 .50500
189 .75375 .76125 .50375
190 .75375 .88000 .62750
191 .87875 .75375 .63000
192 .87750 .88000 .50375
193 .00375 .00375 .75250
194 .00250 .12875 .87750
195 .12875 .00375 .87750
196 .12750 .12750 .75250
197 .25375 .00250 .75375
198 .25375 .13125 .88000
199 .37750 .00875 .88625
200 .37750 .13000 .76000
201 .50375 .01125 .75375
202 .50375 .12750 .87750
203 .63500 .00250 .87750
204 .62750 .12875 .75250
205 .75625 .00500 .75500
206 .75625 .12750 .88000
207 .87875 .00375 .87750
208 .87875 .13625 .75250
209 .00625 .26125 .75375
210 .00500 .37875 .88250
211 .13000 .25375 .87875
212 .13125 .38500 .75250
213 .25500 .25500 .75500
214 .25625 .37875 .88625
215 .38000 .25375 .88000
216 .37875 .37750 .76250
217 .50375 .25375 .75375
218 .50375 .38375 .87875
219 .62875 .26250 .87750
220 .62750 .38750 .75375
221 .76125 .25375 .75375
222 .75250 .37750 .87750
223 .88375 .25250 .88750
224 .88000 .38000 .75500
225 .00375 .50250 .75625
226 .01125 .62750 .87875
227 .12875 .50250 .88250
228 .12750 .63125 .75500
229 .25250 .50250 .75375
230 .25375 .62750 .87875
231 .37750 .50375 .87750
232 .37875 .63250 .75875
233 .50375 .50500 .75250
234 .50375 .62875 .87875
235 .62875 .50375 .87875
236 .62875 .63000 .75250
237 .75625 .50375 .76250
238 .75250 .63375 .88750
239 .87750 .50750 .87875
240 .87875 .62750 .75375
241 .00375 .75250 .75375
242 .00250 .87750 .87750
243 .13500 .75250 .88375
244 .13250 .87875 .75250
245 .25875 .75375 .75375
246 .26250 .87750 .87875
247 .37750 .76000 .88000
248 .37875 .88250 .75375
249 .50250 .75250 .75375
250 .50250 .88125 .87750
251 .62875 .75750 .88625
252 .63500 .87875 .75500
253 .75250 .75375 .75375
254 .75250 .87875 .87750
255 .87750 .75750 .87750
256 .87750 .87750 .75375
