ITEM: TIMESTEP
1529460
ITEM: NUMBER OF ATOMS
256
ITEM: BOX BOUNDS pp pp pp
0 8.0
0 8.0
0 8.0
ITEM: ATOMS id xs ys zs
2 .00375 .00625 .00500
1 .00250 .11500 .11500
4 .11500 .00375 .11500
3 .11625 .12000 .01125
6 .22875 .00250 .00625
5 .22875 .12125 .11625
8 .34000 .00375 .11500
7 .34750 .11625 .01125
9 .50250 .00250 .00500
10 .50375 .12750 .12750
11 .63750 .00500 .13125
12 .62875 .13125 .00375
13 .75375 .00375 .01000
14 .75250 .12875 .12875
15 .87875 .00625 .13000
16 .88250 .12875 .00750
18 .01000 .22875 .00250
17 .00375 .34000 .11750
20 .11625 .22750 .12500
19 .12375 .34000 .00375
22 .23000 .22875 .00250
21 .22750 .34750 .12375
24 .34250 .22750 .11500
23 .34875 .34125 .01000
25 .50250 .25500 .00250
26 .50375 .38000 .12750
27 .62875 .25500 .12750
28 .62750 .37875 .00375
29 .75250 .25375 .00375
30 .75250 .37750 .13000
31 .87750 .25375 .12750
32 .87750 .37750 .00250
33 .00250 .50250 .00375
34 .00625 .63250 .13125
35 .13375 .50250 .13500
36 .12750 .62750 .00375
37 .25375 .50250 .00375
38 .25250 .62750 .13375
39 .37750 .50250 .12750
40 .37750 .62875 .01000
41 .50500 .50500 .00250
42 .50375 .62750 .12750
43 .62875 .50875 .13750
44 .62875 .62750 .00375
45 .75500 .50375 .00250
46 .75500 .63000 .12875
47 .87750 .50250 .13500
48 .87750 .62875 .00250
49 .00375 .75500 .00500
50 .00375 .87750 .12750
51 .12750 .76000 .12750
52 .12875 .87750 .00250
53 .25625 .75500 .00250
54 .25375 .87875 .13000
55 .37750 .75500 .12875
56 .38000 .87875 .00250
57 .50375 .75375 .00375
58 .50250 .87875 .13500
59 .63000 .75250 .12750
60 .63625 .88625 .01000
61 .75250 .75250 .00250
62 .75250 .87750 .12750
63 .87750 .76000 .12875
64 .87750 .87875 .00250
66 .00750 .00375 .22750
65 .00250 .11625 .34375
68 .11625 .00375 .34125
67 .11500 .11500 .22750
70 .23000 .00375 .22750
69 .22875 .11625 .34000
72 .35000 .00250 .34625
71 .34000 .11625 .23000
73 .50375 .00375 .26250
74 .50375 .12875 .38000
75 .62750 .00375 .37750
76 .62875 .12875 .25375
77 .75250 .01000 .26250
78 .76250 .12750 .37750
79 .88000 .00500 .37750
80 .88750 .12875 .26000
82 .00375 .22750 .23750
81 .01125 .34250 .34625
84 .11625 .22750 .34000
83 .11750 .34000 .22875
86 .22750 .23375 .22875
85 .23500 .34250 .34125
88 .35000 .22750 .34625
87 .34125 .34000 .22875
89 .51250 .25250 .25250
90 .50375 .37875 .37750
91 .62875 .26000 .37875
92 .63375 .37875 .25375
93 .75250 .25375 .25375
94 .76000 .38125 .38750
95 .87875 .25625 .38250
96 .88375 .37875 .25750
97 .00250 .50250 .25375
98 .00250 .62750 .37750
99 .12750 .50875 .37750
100 .13000 .62750 .25375
101 .25500 .50250 .25250
102 .25375 .63750 .37875
103 .38250 .50250 .37750
104 .38000 .63250 .25250
105 .50250 .50375 .25250
106 .50375 .62875 .37750
107 .62875 .50250 .38500
108 .62875 .62875 .25375
109 .75500 .50250 .26125
110 .76125 .62875 .37750
111 .88000 .50375 .38000
112 .88125 .62750 .25375
113 .00250 .75625 .25250
114 .00250 .87750 .38500
115 .12875 .75375 .38625
116 .12750 .87875 .25625
117 .25250 .76250 .25500
118 .25500 .88125 .37875
119 .37750 .75500 .37875
120 .37750 .87750 .25375
121 .50250 .75250 .25250
122 .50375 .87750 .37750
123 .62750 .75500 .38000
124 .63125 .87750 .25250
125 .75500 .75500 .25250
126 .75750 .87875 .37875
127 .87875 .75250 .37750
128 .87875 .87750 .25250
129 .00375 .00250 .50375
130 .00625 .12875 .62875
131 .13375 .00750 .63750
132 .13625 .12875 .50375
133 .25375 .00250 .50250
134 .25375 .12875 .63000
135 .38000 .00250 .63500
136 .37750 .12750 .50250
137 .50250 .00375 .50375
138 .50250 .12750 .63000
139 .62750 .01125 .62750
140 .63125 .13000 .50875
141 .75250 .00375 .51125
142 .76125 .12750 .62750
143 .87750 .00375 .62875
144 .87875 .12750 .50250
145 .00500 .25375 .51000
146 .00750 .37875 .62750
147 .12875 .25250 .62875
148 .12750 .37875 .50375
149 .25250 .25250 .50250
150 .25250 .38625 .62750
151 .37750 .25375 .62875
152 .37750 .37750 .50875
153 .50250 .25375 .50500
154 .50250 .38750 .62875
155 .63750 .25625 .62875
156 .62875 .37750 .50750
157 .75375 .26250 .50250
158 .75500 .38375 .62875
159 .87750 .25875 .62875
160 .87750 .37875 .50250
161 .00250 .50250 .50375
162 .00875 .63250 .62875
163 .13000 .50500 .62750
164 .12750 .62875 .50625
165 .25250 .50375 .50250
166 .25375 .62875 .62750
167 .37750 .50375 .63000
168 .38125 .62750 .50500
169 .50250 .51250 .50625
170 .50500 .63000 .62875
171 .62750 .50500 .62875
172 .62875 .63000 .50375
173 .75250 .51125 .51125
174 .75875 .62750 .62750
175 .87750 .50500 .63750
176 .87750 .62875 .50500
177 .00875 .75250 .50875
178 .00500 .87875 .62750
179 .12750 .75500 .62750
180 .12750 .87875 .51250
181 .25875 .75875 .50250
182 .25375 .88250 .62750
183 .37750 .75875 .62750
184 .37750 .87875 .51125
185 .50375 .75375 .50250
186 .50750 .87875 .62750
187 .62875 .75375 .63750
188 .63000 .87750 .51000
189 .75375 .76125 .50375
190 .75500 .87875 .63125
191 .87875 .75250 .63000
192 .87750 .87875 .50375
193 .00250 .01000 .75250
194 .00250 .13250 .87750
195 .13125 .00250 .87750
196 .13625 .12750 .75375
197 .25250 .00375 .75375
198 .25250 .12750 .87875
199 .37875 .00375 .87875
200 .38250 .12875 .75250
201 .50375 .00375 .75375
202 .50250 .12875 .87875
203 .62875 .00250 .88625
204 .62875 .13000 .75375
205 .75375 .00250 .75250
206 .76250 .12750 .87750
207 .87750 .00875 .88250
208 .87750 .12875 .75500
209 .00375 .25250 .75250
210 .00375 .37750 .87875
211 .12875 .25250 .87875
212 .13500 .38000 .75250
213 .25375 .25250 .76125
214 .25250 .37750 .87875
215 .38125 .25500 .87875
216 .37875 .37875 .75250
217 .50250 .25375 .76125
218 .50625 .37750 .87875
219 .62750 .25375 .87875
220 .62875 .38000 .76000
221 .75375 .25250 .76000
222 .75250 .38750 .88000
223 .87875 .25375 .87750
224 .87875 .37875 .75375
225 .00375 .50375 .75500
226 .00250 .62875 .87875
227 .12750 .50250 .87750
228 .12875 .63750 .75375
229 .26250 .50500 .75250
230 .25375 .62750 .87750
231 .37875 .50625 .87750
232 .38250 .63500 .75375
233 .50500 .50875 .75375
234 .50375 .63500 .87875
235 .62750 .50375 .87750
236 .62875 .62875 .75375
237 .75375 .50250 .75375
238 .75250 .63000 .88000
239 .87750 .50375 .88375
240 .87750 .62875 .75375
241 .00250 .75500 .75375
242 .00250 .87750 .88000
243 .13000 .75375 .87875
244 .12750 .87875 .75375
245 .25500 .75250 .75250
246 .25250 .87750 .87750
247 .37750 .76250 .88000
248 .37750 .87750 .76000
249 .50375 .75250 .75250
250 .50750 .87875 .87875
251 .62875 .75250 .87875
252 .62875 .88625 .75250
253 .75250 .75250 .75375
254 .75375 .88750 .88125
255 .87750 .76125 .87750
256 .88000 .87750 .75500
