ITEM: TIMESTEP
1529400
ITEM: NUMBER OF ATOMS
256
ITEM: BOX BOUNDS pp pp pp
0 8.0
0 8.0
0 8.0
ITEM: ATOMS id xs ys zs
2 .00750 .00375 .00375
1 .00375 .11500 .12375
4 .11625 .00375 .11625
3 .11500 .11750 .00250
6 .22875 .00500 .00375
5 .23000 .12125 .11500
8 .34125 .00250 .11500
7 .34125 .11625 .00375
9 .50250 .00500 .00250
10 .50250 .12750 .13750
11 .62875 .00500 .13500
12 .62750 .12875 .00250
13 .75250 .00375 .00625
14 .76250 .12750 .13000
15 .87750 .00375 .12875
16 .87750 .12875 .00375
18 .00375 .22750 .00625
17 .00625 .34250 .11625
20 .11750 .22750 .11625
19 .11750 .34000 .00500
22 .22750 .22875 .00375
21 .22875 .34000 .11625
24 .34250 .22750 .12375
23 .34000 .34125 .00500
25 .50375 .25250 .01125
26 .50375 .37875 .12750
27 .62750 .26125 .12875
28 .62875 .38250 .00375
29 .75750 .25500 .00250
30 .75375 .37750 .12875
31 .88500 .25375 .12750
32 .88125 .37750 .00500
33 .00250 .50250 .00250
34 .00500 .62875 .12750
35 .12875 .50500 .13250
36 .12750 .62875 .01250
37 .25375 .50375 .01250
38 .25625 .62750 .13000
39 .37750 .50375 .13750
40 .38000 .62750 .00375
41 .50250 .50250 .00250
42 .50375 .62750 .12875
43 .63000 .50250 .12875
44 .62875 .62875 .00250
45 .75375 .50375 .00375
46 .75375 .63750 .12750
47 .87875 .50500 .12750
48 .87875 .63000 .00375
49 .00250 .75500 .00375
50 .00500 .87875 .12875
51 .13125 .75500 .12875
52 .13000 .87750 .00250
53 .25250 .75250 .00250
54 .25875 .87875 .12750
55 .38750 .75375 .12750
56 .37875 .87875 .00375
57 .51125 .75375 .00500
58 .50375 .87750 .12750
59 .63250 .75375 .12750
60 .62750 .88125 .00250
61 .75375 .75375 .00500
62 .75875 .87875 .12750
63 .87750 .76250 .13250
64 .87875 .88000 .00250
66 .00375 .00500 .23750
65 .00375 .11625 .34000
68 .12375 .01250 .34125
67 .12500 .11625 .23250
70 .22750 .00250 .22750
69 .22750 .11625 .34125
72 .34500 .00250 .34125
71 .34000 .12000 .22750
73 .50250 .00500 .25250
74 .50375 .12750 .37750
75 .62750 .00375 .37875
76 .63000 .12875 .25375
77 .75375 .00375 .25375
78 .75375 .12875 .37875
79 .87875 .00375 .37875
80 .88500 .12750 .25250
82 .00250 .23000 .22875
81 .00500 .34000 .34500
84 .11750 .23000 .34125
83 .12125 .34000 .22875
86 .22875 .23625 .23000
85 .22750 .34750 .34750
88 .34375 .22875 .34000
87 .35000 .34125 .22750
89 .50250 .25250 .25500
90 .50375 .37750 .37750
91 .63125 .25500 .37875
92 .62875 .38125 .26250
93 .75500 .25250 .25875
94 .75375 .37875 .38750
95 .87875 .25375 .37750
96 .87750 .37875 .25250
97 .00500 .50500 .25375
98 .01125 .62875 .38000
99 .13125 .50375 .37875
100 .12875 .63250 .25375
101 .25500 .50625 .25250
102 .25250 .63500 .38625
103 .37875 .50250 .37750
104 .37875 .63125 .25375
105 .50500 .50250 .25375
106 .50375 .62875 .37750
107 .62750 .50625 .38750
108 .62750 .62875 .25250
109 .75250 .51250 .25250
110 .75375 .62875 .37875
111 .88125 .50375 .37875
112 .87750 .62875 .25250
113 .00500 .75250 .25500
114 .00625 .87750 .37750
115 .12750 .75250 .37875
116 .12875 .87875 .26250
117 .25375 .75250 .25250
118 .25375 .87750 .37750
119 .37875 .76250 .37750
120 .37875 .87875 .25625
121 .50250 .75500 .25625
122 .50250 .87750 .37875
123 .62875 .75250 .37875
124 .63000 .87750 .25500
125 .75875 .75250 .25250
126 .75375 .88000 .37875
127 .87750 .75250 .38500
128 .87875 .88000 .25250
129 .00250 .01250 .50500
130 .00375 .12750 .63625
131 .12875 .00250 .62750
132 .12750 .13375 .50375
133 .25250 .01125 .50250
134 .25250 .12875 .63500
135 .37750 .00250 .62750
136 .37750 .12750 .51125
137 .50250 .00375 .50250
138 .50250 .12750 .63125
139 .62750 .00375 .62750
140 .63125 .12750 .50250
141 .75500 .00250 .50250
142 .75250 .12875 .62750
143 .87875 .01000 .62750
144 .87875 .13375 .50375
145 .00250 .25250 .50375
146 .00375 .37750 .62875
147 .12750 .25250 .62875
148 .12875 .37875 .50625
149 .25250 .25375 .50250
150 .25250 .37875 .63625
151 .37875 .25375 .62875
152 .38625 .38375 .50750
153 .50250 .26250 .50250
154 .50500 .38375 .62875
155 .63000 .25250 .62875
156 .62750 .37750 .50375
157 .75375 .25375 .50375
158 .75375 .38375 .63750
159 .87875 .26125 .63750
160 .87875 .37875 .50375
161 .00250 .50500 .51125
162 .01125 .62875 .62875
163 .12875 .50500 .62750
164 .12750 .63500 .50500
165 .25375 .50500 .50375
166 .25875 .63000 .62875
167 .37750 .51250 .62750
168 .38125 .63125 .50250
169 .50750 .50375 .50500
170 .50875 .62875 .63625
171 .62875 .50750 .62875
172 .62750 .62750 .50375
173 .75250 .50250 .50375
174 .75250 .62750 .62875
175 .87750 .50375 .62750
176 .87875 .62875 .50375
177 .00750 .75250 .50375
178 .00500 .87750 .62750
179 .12750 .75250 .62875
180 .13000 .88125 .50500
181 .25750 .76125 .50375
182 .25250 .88750 .63125
183 .37875 .75250 .62875
184 .38125 .88375 .50250
185 .50750 .75500 .50500
186 .50250 .88250 .63500
187 .63500 .75375 .62750
188 .63125 .87750 .50375
189 .75250 .75375 .50500
190 .75250 .87750 .63750
191 .88750 .75375 .62750
192 .88000 .88000 .50250
193 .00250 .00375 .75375
194 .00875 .12875 .88375
195 .13125 .00875 .87875
196 .12875 .13625 .76000
197 .25750 .00250 .75375
198 .25750 .12750 .88000
199 .37875 .00375 .88375
200 .38000 .13000 .75375
201 .50375 .00500 .75375
202 .50375 .12750 .87750
203 .63375 .00375 .88375
204 .63125 .12750 .76125
205 .75375 .00375 .75375
206 .75250 .13000 .87875
207 .87875 .00750 .87750
208 .87750 .12750 .75500
209 .00750 .25250 .75500
210 .00625 .38750 .88000
211 .12875 .25375 .87750
212 .12750 .37750 .75375
213 .25375 .25250 .75250
214 .25500 .37750 .87875
215 .38375 .26250 .88000
216 .37875 .37875 .76250
217 .50375 .25375 .75500
218 .50250 .37750 .87875
219 .63500 .25250 .87875
220 .62750 .38000 .76250
221 .75250 .26125 .75500
222 .75625 .37750 .88750
223 .88375 .25500 .88500
224 .88500 .38250 .75500
225 .00250 .50500 .75375
226 .00375 .63750 .87750
227 .12750 .51000 .87875
228 .13000 .62875 .75375
229 .26000 .50375 .75375
230 .25250 .62875 .87875
231 .37875 .50375 .88000
232 .38750 .62875 .75375
233 .50250 .50500 .75750
234 .50750 .62875 .88375
235 .62875 .50500 .88250
236 .62875 .62875 .75375
237 .75250 .50250 .76000
238 .75250 .63625 .87875
239 .88000 .50375 .88125
240 .87875 .63500 .76250
241 .00250 .75375 .75375
242 .00250 .87750 .88375
243 .12750 .75375 .87750
244 .12750 .87875 .75250
245 .25500 .75500 .75875
246 .25250 .88000 .87875
247 .38000 .75250 .87750
248 .37875 .87750 .75375
249 .50500 .75250 .75375
250 .50375 .87750 .87750
251 .62875 .75375 .88750
252 .62875 .88250 .75250
253 .75500 .75500 .75250
254 .75375 .87750 .87875
255 .88000 .75375 .88250
256 .88625 .87875 .76250
