ITEM: TIMESTEP
1528720
ITEM: NUMBER OF ATOMS
256
ITEM: BOX BOUNDS pp pp pp
0 8.0
0 8.0
0 8.0
ITEM: ATOMS id xs ys zs
1 .00250 .00375 .00375
2 .00875 .11500 .11625
3 .11500 .00250 .11500
4 .12500 .12000 .00250
5 .22750 .00375 .00500
6 .22750 .11750 .11500
7 .34000 .00375 .11500
8 .34000 .11625 .00250
9 .50375 .00500 .00375
10 .50250 .12875 .13000
11 .62875 .00375 .13000
12 .62750 .12875 .00250
13 .75375 .00250 .00250
14 .75375 .12875 .12750
15 .87875 .01125 .12875
16 .87750 .12750 .01000
17 .00250 .22875 .00375
18 .00250 .34625 .12500
19 .11500 .22750 .11625
20 .11625 .34125 .00375
21 .22750 .23625 .00250
22 .23625 .34500 .11625
23 .34875 .22875 .12000
24 .34000 .34125 .00250
25 .50250 .25250 .00375
26 .50250 .38000 .13000
27 .62750 .25250 .13625
28 .63000 .37750 .00375
29 .75375 .26000 .00375
30 .75250 .38000 .12750
31 .87875 .25375 .13375
32 .87750 .38125 .00500
33 .00375 .50250 .00375
34 .00750 .62750 .12750
35 .12875 .51250 .12875
36 .12750 .63750 .00250
37 .25250 .50250 .00250
38 .26125 .63000 .12875
39 .37750 .50375 .12875
40 .38250 .63000 .01000
41 .50250 .50250 .00250
42 .50375 .63000 .12750
43 .62750 .50625 .12750
44 .62750 .63500 .00375
45 .75375 .51125 .00250
46 .75500 .63625 .13250
47 .87875 .50375 .13625
48 .87875 .62875 .01250
49 .00625 .75375 .00250
50 .00250 .87875 .13000
51 .12750 .76250 .12750
52 .13375 .87875 .00500
53 .25625 .75375 .00375
54 .25375 .87750 .12750
55 .37875 .75500 .12875
56 .38000 .88125 .00250
57 .51000 .76000 .00250
58 .50250 .87750 .12875
59 .62750 .75375 .13375
60 .63750 .87875 .00375
61 .75375 .75250 .00500
62 .75375 .88000 .13500
63 .87875 .75250 .12750
64 .87875 .88000 .00500
65 .00250 .00250 .22750
66 .00625 .11500 .34000
67 .11750 .00375 .34000
68 .11625 .11500 .23750
69 .22750 .00750 .22750
70 .22875 .11625 .34000
71 .34125 .00250 .34125
72 .34625 .11750 .22750
73 .50375 .00625 .25375
74 .51250 .12750 .37875
75 .62750 .00250 .37875
76 .62750 .13125 .25375
77 .75250 .00375 .25375
78 .75250 .12875 .37875
79 .87750 .00500 .37750
80 .87750 .12750 .25625
81 .00250 .22875 .23125
82 .01000 .34500 .34125
83 .11625 .22750 .34250
84 .11750 .34250 .22750
85 .22750 .22875 .23625
86 .22750 .34000 .34000
87 .34125 .22875 .34125
88 .34000 .34250 .22750
89 .50625 .25375 .25250
90 .50250 .38250 .38375
91 .62875 .25375 .38250
92 .62875 .38500 .25375
93 .75250 .26125 .25250
94 .75375 .37875 .37750
95 .87750 .26250 .38625
96 .87875 .38625 .25250
97 .00250 .50250 .25375
98 .00500 .63125 .38000
99 .12875 .50250 .38625
100 .12875 .62875 .25500
101 .25375 .50250 .25500
102 .25375 .62875 .37750
103 .38750 .50875 .38625
104 .37750 .63500 .25625
105 .50250 .51125 .25875
106 .50250 .62750 .37875
107 .62875 .50375 .38625
108 .62875 .63375 .25500
109 .75375 .50375 .26000
110 .75250 .62875 .37750
111 .87750 .50375 .37750
112 .87750 .63625 .25875
113 .01250 .75375 .25500
114 .00375 .87875 .37750
115 .13500 .75375 .37750
116 .13375 .87750 .25375
117 .25250 .75375 .25750
118 .25500 .87750 .37750
119 .38000 .75625 .37875
120 .37750 .87875 .25375
121 .50250 .75875 .25250
122 .50875 .87750 .38125
123 .62750 .75375 .37750
124 .62875 .87750 .25375
125 .75250 .75250 .25500
126 .75750 .87750 .37875
127 .87875 .75375 .37875
128 .88625 .87750 .25375
129 .01000 .00375 .50375
130 .00625 .13750 .62875
131 .12750 .01250 .62875
132 .12875 .12875 .50500
133 .26250 .00375 .50250
134 .25750 .13500 .63625
135 .37875 .00375 .62750
136 .37875 .12875 .50500
137 .50500 .00500 .50250
138 .50625 .13250 .63375
139 .63000 .00625 .63000
140 .62750 .12750 .50250
141 .75375 .00375 .50375
142 .75250 .12750 .63000
143 .87750 .00375 .62875
144 .87750 .13125 .50250
145 .01125 .25250 .50250
146 .00250 .37750 .62750
147 .13250 .25875 .62875
148 .12875 .37875 .50375
149 .25250 .25250 .51250
150 .25875 .37750 .62875
151 .38000 .25375 .62875
152 .38500 .37750 .50250
153 .51250 .25375 .50250
154 .50250 .37750 .62750
155 .63375 .25500 .62750
156 .63250 .38750 .50625
157 .75750 .25250 .51250
158 .75375 .37875 .63000
159 .87750 .25500 .62750
160 .87750 .38000 .50375
161 .00250 .50250 .50250
162 .00250 .62750 .62750
163 .12875 .50250 .62875
164 .12875 .62875 .50250
165 .25250 .50250 .50375
166 .25375 .62750 .63000
167 .37750 .50500 .62750
168 .37875 .62750 .50500
169 .50375 .51125 .51250
170 .50375 .63375 .63000
171 .62875 .50875 .62875
172 .63750 .62875 .51125
173 .76250 .50500 .50375
174 .75375 .62750 .62750
175 .88625 .50250 .62750
176 .87750 .63375 .51250
177 .01250 .75250 .50500
178 .00500 .87750 .62750
179 .13375 .75375 .62750
180 .12875 .87750 .51000
181 .25375 .75500 .51000
182 .25750 .87875 .62750
183 .37875 .75375 .62750
184 .37750 .87875 .50250
185 .50250 .75375 .50375
186 .50375 .88250 .63625
187 .63375 .75250 .62875
188 .62750 .88250 .50375
189 .75375 .76125 .50250
190 .75375 .87750 .63000
191 .87750 .75500 .62875
192 .87875 .87875 .50375
193 .00375 .00250 .75375
194 .00375 .13250 .87750
195 .12875 .00250 .87750
196 .12875 .12750 .76125
197 .25750 .00375 .75375
198 .26125 .13000 .87875
199 .37750 .00875 .87750
200 .37875 .13250 .76250
201 .50250 .00250 .75500
202 .50375 .12750 .88500
203 .63375 .00375 .88750
204 .62875 .13000 .75375
205 .75250 .00250 .75625
206 .75375 .12875 .88250
207 .87750 .00250 .88750
208 .88000 .13625 .75500
209 .00500 .25375 .75500
210 .00500 .38375 .88375
211 .13250 .25375 .87750
212 .13750 .38375 .75250
213 .25250 .25375 .75250
214 .25375 .38000 .87875
215 .38000 .25250 .88000
216 .37750 .38000 .75250
217 .50375 .25500 .75250
218 .50375 .37750 .87750
219 .62750 .25375 .88375
220 .62750 .37750 .76125
221 .75375 .25500 .75375
222 .75500 .37875 .87875
223 .88500 .25250 .88250
224 .87875 .37750 .76000
225 .00250 .50375 .75250
226 .00250 .63375 .87750
227 .12875 .50625 .87875
228 .12875 .63375 .76000
229 .25875 .50375 .75375
230 .25375 .62750 .87875
231 .37750 .50625 .88250
232 .37875 .63750 .75250
233 .50250 .51125 .75250
234 .50250 .63375 .88500
235 .62750 .50375 .88000
236 .62875 .62750 .75375
237 .75250 .50500 .76125
238 .75375 .62875 .88375
239 .88000 .50250 .88000
240 .88500 .62750 .75375
241 .00750 .75250 .76250
242 .00750 .88500 .87750
243 .12875 .75250 .87750
244 .12750 .88375 .75250
245 .25500 .75250 .75250
246 .26250 .87875 .88125
247 .37875 .75250 .88000
248 .37750 .87750 .75875
249 .50250 .75375 .75375
250 .50500 .88000 .87750
251 .62750 .75500 .87875
252 .62875 .87750 .75250
253 .75250 .75375 .75250
254 .75250 .88000 .87750
255 .87875 .75625 .88250
256 .87750 .88000 .75375
