ITEM: TIMESTEP
1529560
ITEM: NUMBER OF ATOMS
256
ITEM: BOX BOUNDS pp pp pp
0 8.0
0 8.0
0 8.0
ITEM: ATOMS id xs ys zs
2 .00250 .00375 .01125
1 .00375 .11750 .11500
4 .11625 .00250 .11500
3 .12000 .11625 .00250
6 .22750 .00250 .00375
5 .23625 .11625 .11500
8 .34875 .00375 .12125
7 .34875 .11750 .00250
9 .50375 .00625 .00750
10 .50250 .12875 .12750
11 .63375 .00875 .12750
12 .62750 .12750 .00250
13 .75375 .00500 .00625
14 .75375 .12750 .12875
15 .87875 .00250 .12875
16 .87750 .12750 .00375
18 .00500 .22875 .00375
17 .00250 .34000 .11500
20 .11875 .22875 .11500
19 .11625 .34625 .00375
22 .22750 .22875 .00375
21 .22875 .34000 .11625
24 .34000 .22750 .12500
23 .34000 .34000 .00250
25 .50250 .25875 .00250
26 .50875 .38000 .12875
27 .63250 .25375 .13125
28 .62875 .37750 .01125
29 .75250 .25625 .00250
30 .75500 .37875 .13250
31 .88000 .25250 .12750
32 .88000 .38250 .00375
33 .00250 .51000 .00375
34 .00250 .63000 .12875
35 .12750 .50250 .12875
36 .12750 .62875 .00375
37 .25250 .51000 .00250
38 .25375 .63250 .12750
39 .37750 .50500 .13000
40 .37750 .63125 .00375
41 .50250 .50375 .01000
42 .50375 .63375 .13125
43 .62750 .50375 .12875
44 .62750 .63375 .00500
45 .75250 .50375 .00375
46 .75250 .63625 .12750
47 .88000 .50250 .13750
48 .87750 .62750 .01250
49 .00250 .75500 .00500
50 .00250 .87750 .12750
51 .13375 .75250 .13750
52 .12750 .87750 .01250
53 .26250 .75500 .00250
54 .25250 .88000 .12750
55 .37875 .75375 .12875
56 .37750 .88000 .00250
57 .50375 .75500 .00375
58 .50375 .88375 .12750
59 .62750 .76125 .12875
60 .62750 .87875 .00375
61 .75375 .75375 .00250
62 .75375 .87750 .12750
63 .88000 .75875 .12875
64 .88000 .87875 .00375
66 .00500 .00375 .22750
65 .00250 .12000 .34000
68 .11625 .01125 .34125
67 .12000 .11500 .22875
70 .22875 .00375 .23250
69 .23000 .11625 .34000
72 .34125 .01000 .34875
71 .34625 .11500 .22875
73 .50375 .01125 .25375
74 .50250 .13750 .38000
75 .63000 .00500 .37875
76 .62875 .13500 .25250
77 .75375 .00250 .25250
78 .75250 .12750 .38000
79 .88250 .00500 .37750
80 .88750 .12875 .25500
82 .01000 .22875 .22750
81 .00500 .34250 .34250
84 .11500 .22750 .34125
83 .11500 .34750 .23000
86 .23500 .22750 .22750
85 .22750 .34000 .34000
88 .34125 .22750 .34125
87 .34125 .34625 .22875
89 .50375 .25250 .25375
90 .50375 .38750 .37750
91 .62875 .25250 .37875
92 .63250 .37750 .25250
93 .75250 .25750 .25500
94 .75625 .38250 .37750
95 .87875 .25375 .37875
96 .88000 .37875 .25500
97 .00250 .50250 .25375
98 .01000 .62875 .37750
99 .12750 .50500 .38000
100 .12750 .63000 .25250
101 .25250 .51125 .25500
102 .25625 .62875 .37750
103 .38125 .50375 .37750
104 .37875 .63000 .25500
105 .50750 .50375 .25375
106 .51250 .63125 .37875
107 .62875 .50375 .38500
108 .63625 .63250 .25375
109 .75250 .50375 .25250
110 .75250 .62875 .37750
111 .87750 .50250 .38750
112 .87875 .62750 .25250
113 .00250 .75250 .26250
114 .00250 .88000 .37875
115 .12875 .75250 .38250
116 .13250 .87750 .25500
117 .25375 .75500 .25500
118 .25875 .87750 .37875
119 .38625 .75375 .38000
120 .37750 .87875 .25375
121 .50250 .75375 .25250
122 .50375 .87875 .37875
123 .62875 .75375 .37875
124 .63000 .87750 .25375
125 .75250 .76000 .25250
126 .75375 .87875 .37875
127 .87750 .75500 .37750
128 .87750 .87875 .25250
129 .00875 .00250 .50375
130 .00375 .12875 .63000
131 .12750 .00375 .62875
132 .13000 .13375 .51125
133 .25875 .00250 .50375
134 .26250 .12875 .62750
135 .38500 .00250 .63625
136 .37875 .12750 .50250
137 .50250 .01250 .50500
138 .50375 .12875 .62750
139 .62750 .00375 .62875
140 .62875 .12875 .51250
141 .75750 .00500 .50375
142 .75375 .12750 .62875
143 .87875 .00250 .63000
144 .87875 .12875 .50250
145 .00375 .25375 .50250
146 .00875 .38125 .63000
147 .12750 .25250 .63000
148 .12875 .37875 .50500
149 .25375 .26125 .50375
150 .25375 .38125 .62750
151 .37875 .25250 .63750
152 .37750 .37875 .50250
153 .50500 .25375 .50375
154 .50500 .37750 .62750
155 .63000 .25375 .63000
156 .62750 .37750 .50500
157 .75875 .25375 .50250
158 .75500 .38500 .62750
159 .87875 .25375 .62875
160 .87875 .37875 .50250
161 .00500 .50375 .50375
162 .00250 .62750 .63000
163 .12750 .50500 .62750
164 .13500 .63000 .50375
165 .26000 .50750 .50500
166 .25375 .62875 .62875
167 .38000 .50250 .62875
168 .37750 .63000 .50250
169 .50375 .50375 .51125
170 .50250 .63625 .62750
171 .62750 .50500 .62750
172 .62875 .63750 .50375
173 .75375 .50625 .50375
174 .75375 .62750 .62750
175 .87875 .51250 .63375
176 .87875 .62750 .50250
177 .01000 .76125 .50375
178 .01000 .88750 .62750
179 .12875 .75500 .62750
180 .12875 .87875 .50250
181 .25375 .75250 .50250
182 .25500 .88125 .63000
183 .37875 .75375 .62875
184 .38000 .87875 .50250
185 .50250 .75250 .50375
186 .50500 .87875 .62750
187 .63750 .75250 .63750
188 .62750 .88625 .50375
189 .75375 .75250 .50250
190 .76250 .87750 .63000
191 .88375 .75375 .62875
192 .87750 .87750 .50500
193 .00375 .00250 .76000
194 .00625 .12875 .87750
195 .13000 .01000 .87875
196 .13750 .12750 .75375
197 .25375 .00250 .75250
198 .25250 .12750 .88000
199 .37875 .00375 .87875
200 .37750 .12875 .75250
201 .50375 .00375 .75250
202 .51125 .13375 .87875
203 .62875 .00250 .88250
204 .63000 .13500 .75250
205 .75375 .00875 .75375
206 .75375 .13625 .88000
207 .87875 .00250 .87750
208 .87875 .12750 .75750
209 .00500 .25250 .75375
210 .00625 .38000 .87875
211 .12750 .26250 .88000
212 .12875 .37750 .75250
213 .25375 .25500 .75250
214 .25500 .37750 .88000
215 .37875 .25250 .87875
216 .37750 .37875 .75375
217 .50250 .25375 .75500
218 .50500 .37875 .87875
219 .62875 .26125 .87750
220 .62875 .37750 .76250
221 .75250 .25375 .75250
222 .75375 .37750 .88125
223 .87875 .25375 .87750
224 .87875 .37875 .75375
225 .00250 .50250 .75375
226 .00375 .62875 .87875
227 .12750 .50375 .87875
228 .12875 .62750 .76250
229 .26250 .50375 .75375
230 .25500 .62875 .87875
231 .37875 .50375 .87750
232 .38500 .62875 .75875
233 .50625 .50750 .76250
234 .50375 .62875 .88375
235 .62875 .50250 .88000
236 .63000 .63000 .75750
237 .75500 .50375 .75250
238 .75375 .62750 .87875
239 .88000 .50375 .87875
240 .87875 .63125 .75500
241 .00250 .75375 .75250
242 .01250 .87750 .87750
243 .12750 .75375 .87750
244 .12750 .88000 .75375
245 .25750 .75250 .75750
246 .25375 .88625 .88625
247 .37875 .75250 .87875
248 .37750 .88125 .75375
249 .51125 .75375 .75375
250 .50375 .88000 .87750
251 .62750 .75375 .88250
252 .62750 .87875 .75250
253 .75500 .75250 .76125
254 .75375 .88000 .87875
255 .87750 .75500 .87750
256 .87875 .88000 .75250
