ITEM: TIMESTEP
1528580
ITEM: NUMBER OF ATOMS
256
ITEM: BOX BOUNDS pp pp pp
0 8.0
0 8.0
0 8.0
ITEM: ATOMS id xs ys zs
1 .00500 .00375 .00375
2 .00250 .11500 .11500
3 .11625 .01250 .11625
4 .11625 .11750 .00250
5 .22875 .00875 .00250
6 .22750 .11625 .12000
7 .34000 .00375 .11625
8 .34750 .11500 .00375
9 .50250 .00250 .00375
10 .51125 .12750 .12750
11 .62875 .00375 .12875
12 .62750 .12750 .00250
13 .75250 .01125 .00375
14 .75375 .13625 .12750
15 .87750 .00250 .12875
16 .87875 .12750 .00250
17 .00250 .23500 .00875
18 .00375 .34000 .12000
19 .12000 .22875 .11500
20 .11750 .34500 .00375
21 .22750 .22750 .00250
22 .22875 .34125 .12125
23 .34000 .23125 .11750
24 .34000 .34000 .00250
25 .50500 .25375 .00250
26 .50500 .37875 .13625
27 .62875 .25250 .13500
28 .62750 .38750 .00250
29 .75250 .25375 .00500
30 .75250 .38125 .13500
31 .88625 .25750 .12875
32 .88000 .37875 .00500
33 .00250 .50250 .00625
34 .00375 .63250 .12875
35 .12750 .50250 .13625
36 .12750 .62750 .00375
37 .25375 .50375 .00250
38 .25500 .62750 .13750
39 .37750 .50375 .12750
40 .37875 .63375 .00250
41 .50250 .50375 .00250
42 .50375 .63625 .12875
43 .62750 .50625 .13000
44 .62875 .63500 .00250
45 .75375 .50500 .00375
46 .75375 .62750 .12875
47 .88000 .50375 .12750
48 .87875 .62750 .00375
49 .00250 .75375 .00375
50 .00375 .87875 .13000
51 .12750 .75250 .12750
52 .13000 .87875 .00250
53 .25250 .75250 .01250
54 .25375 .88125 .13750
55 .37750 .75375 .12875
56 .38000 .87875 .00375
57 .50250 .76250 .00375
58 .51000 .88250 .13250
59 .62875 .76125 .12875
60 .62750 .88000 .00500
61 .75750 .75250 .00500
62 .75625 .87750 .12875
63 .87875 .75250 .12875
64 .87875 .87750 .01125
65 .00750 .00250 .22750
66 .00500 .11500 .34125
67 .11500 .00250 .34125
68 .11500 .11500 .23375
69 .23000 .00375 .22750
70 .22750 .11500 .34250
71 .34250 .00375 .34250
72 .35000 .11750 .23250
73 .50375 .00250 .25625
74 .50500 .12750 .37750
75 .62875 .01000 .37875
76 .62750 .13000 .25250
77 .75625 .00250 .25375
78 .75375 .13375 .37750
79 .87875 .00375 .37750
80 .87875 .13000 .25250
81 .00250 .22875 .22875
82 .00250 .34250 .34125
83 .11500 .23000 .34375
84 .11625 .34000 .22875
85 .22875 .23375 .23375
86 .22750 .34000 .34125
87 .34250 .22750 .34250
88 .34000 .34000 .22875
89 .50250 .25375 .25250
90 .50500 .38000 .37750
91 .62875 .25250 .37750
92 .63000 .37750 .25500
93 .75625 .25250 .25500
94 .75250 .37875 .37875
95 .87750 .25375 .38000
96 .87875 .37750 .25375
97 .00375 .50375 .25250
98 .00375 .63625 .37875
99 .13375 .50500 .38000
100 .12750 .63125 .25250
101 .25250 .50500 .25250
102 .25375 .62875 .37875
103 .37750 .50500 .38250
104 .38375 .63000 .25750
105 .50250 .50625 .25250
106 .50500 .63250 .37750
107 .62875 .50250 .37875
108 .62875 .63000 .25500
109 .76125 .50250 .25375
110 .75375 .63250 .38375
111 .88750 .50375 .38250
112 .87875 .63375 .25375
113 .00250 .75500 .25250
114 .00375 .87750 .37875
115 .12875 .75375 .38375
116 .13750 .87875 .25250
117 .25375 .75250 .25500
118 .25250 .87875 .37750
119 .37750 .76125 .37750
120 .37750 .87875 .25250
121 .50250 .75375 .25500
122 .50375 .87875 .38125
123 .62875 .75375 .38000
124 .63250 .88750 .25250
125 .75500 .76125 .25375
126 .75250 .87875 .37750
127 .87750 .75375 .38000
128 .87750 .87875 .25500
129 .00250 .01000 .50750
130 .00250 .13500 .63375
131 .12875 .00250 .63125
132 .13000 .13125 .51250
133 .25375 .00375 .50375
134 .25250 .12750 .63000
135 .37750 .00375 .62875
136 .38250 .13625 .50375
137 .50375 .00250 .51250
138 .50375 .12875 .63500
139 .62875 .00750 .63000
140 .62875 .12750 .50375
141 .75250 .00375 .50500
142 .75375 .12875 .63500
143 .87875 .00375 .62750
144 .87750 .12750 .51000
145 .00375 .25250 .50250
146 .00375 .37750 .62750
147 .12875 .25250 .62875
148 .12875 .37750 .50375
149 .25500 .25250 .50250
150 .25250 .37875 .62875
151 .38750 .26250 .62875
152 .37875 .37875 .50375
153 .50375 .25250 .50375
154 .50375 .37875 .62875
155 .62875 .25375 .62750
156 .62750 .37875 .50750
157 .75500 .25250 .50625
158 .75500 .37875 .63250
159 .87750 .25375 .62875
160 .87750 .37750 .50375
161 .00250 .50625 .50250
162 .01250 .63000 .62750
163 .12875 .50500 .63000
164 .13375 .63625 .50250
165 .25250 .50250 .50250
166 .25500 .62750 .63250
167 .37750 .50250 .62875
168 .38375 .62875 .50250
169 .50500 .50250 .50375
170 .51000 .62875 .63125
171 .62750 .50375 .62875
172 .62750 .62875 .50375
173 .75500 .50250 .51000
174 .75375 .62875 .63250
175 .87875 .50250 .63750
176 .88000 .63000 .50250
177 .01000 .75250 .50625
178 .00250 .87750 .63000
179 .12875 .75375 .63375
180 .12875 .87875 .50875
181 .25500 .75375 .50500
182 .25250 .87875 .62875
183 .37875 .75250 .63125
184 .38000 .88625 .50250
185 .51250 .75500 .51250
186 .50375 .87875 .62875
187 .62750 .75500 .62875
188 .62750 .87750 .51000
189 .76125 .75500 .50375
190 .75500 .87750 .62875
191 .88000 .75375 .63500
192 .88625 .88000 .50250
193 .00375 .00250 .75250
194 .00375 .13000 .87750
195 .12875 .00500 .87875
196 .12750 .12875 .75375
197 .25375 .00250 .75250
198 .25250 .12750 .87875
199 .37875 .00500 .87875
200 .37750 .12750 .75375
201 .50375 .00375 .75250
202 .50500 .12750 .87875
203 .62750 .00250 .87750
204 .63000 .12750 .75250
205 .75375 .00500 .75625
206 .75375 .12875 .88750
207 .87875 .00250 .87875
208 .88375 .12875 .75750
209 .00375 .25500 .75500
210 .00750 .38375 .87750
211 .13250 .25375 .87875
212 .12750 .37875 .75375
213 .25250 .25625 .75375
214 .25750 .38250 .88250
215 .38500 .25250 .88000
216 .38000 .38000 .75500
217 .50375 .25250 .75375
218 .50250 .37875 .87875
219 .62750 .25250 .87750
220 .63375 .37875 .75250
221 .75250 .25375 .75250
222 .75375 .38000 .87875
223 .87750 .25250 .87750
224 .87875 .37750 .76250
225 .00375 .50250 .75250
226 .00375 .62750 .88000
227 .12875 .50375 .87750
228 .12875 .62875 .75250
229 .25250 .50250 .76250
230 .25250 .62875 .87750
231 .37875 .50250 .88750
232 .37875 .63000 .75250
233 .50375 .50250 .75250
234 .50375 .62875 .87750
235 .62750 .50250 .87875
236 .62750 .63250 .75500
237 .75625 .50250 .75250
238 .75375 .62875 .87750
239 .88000 .50250 .87750
240 .87875 .62875 .75250
241 .00250 .75250 .75250
242 .00500 .87750 .87875
243 .13625 .75375 .88000
244 .13750 .88000 .75250
245 .25375 .76000 .75375
246 .26250 .87750 .87875
247 .37750 .75625 .87875
248 .38250 .88500 .75375
249 .50875 .75250 .76125
250 .50375 .87875 .87750
251 .62875 .75250 .87750
252 .63375 .87750 .75500
253 .75375 .75375 .75750
254 .75500 .87875 .87750
255 .88750 .75625 .88000
256 .87875 .88500 .75375
