ITEM: TIMESTEP
1529140
ITEM: NUMBER OF ATOMS
256
ITEM: BOX BOUNDS pp pp pp
0 8.0
0 8.0
0 8.0
ITEM: ATOMS id xs ys zs
2 .00250 .00375 .00250
1 .00750 .11625 .11625
4 .12500 .00375 .11625
3 .11625 .11625 .00500
6 .23750 .00375 .00500
5 .22875 .11625 .12000
8 .34125 .00250 .12375
7 .34000 .11500 .00250
9 .50875 .01250 .00250
10 .50375 .12750 .12750
11 .62875 .00250 .12875
12 .62750 .12750 .00250
13 .75375 .00375 .00250
14 .75375 .12875 .12750
15 .87875 .00375 .12875
16 .87750 .13625 .00375
18 .00375 .22750 .00250
17 .00500 .34375 .11500
20 .12250 .22750 .11500
19 .11500 .34125 .00250
22 .23625 .22750 .00625
21 .23000 .34125 .11500
24 .34000 .23250 .11875
23 .34125 .34125 .00250
25 .50250 .25375 .00375
26 .50250 .38000 .13625
27 .62750 .25375 .12750
28 .62750 .38625 .00250
29 .75250 .25375 .00375
30 .75250 .38500 .12875
31 .87750 .25375 .13625
32 .87875 .38625 .00375
33 .00250 .51000 .00250
34 .00250 .62750 .12750
35 .12875 .50875 .12750
36 .12875 .63000 .00625
37 .25375 .50625 .00500
38 .25375 .62750 .12750
39 .37750 .50250 .12875
40 .37750 .62875 .00250
41 .50375 .50375 .00375
42 .50375 .62750 .12875
43 .63000 .50250 .13375
44 .63000 .63375 .00250
45 .75375 .50625 .00375
46 .75250 .62750 .12750
47 .88625 .50875 .13000
48 .87750 .62875 .00375
49 .00500 .75375 .00375
50 .00250 .88000 .12875
51 .12875 .75500 .12750
52 .12875 .88000 .01000
53 .25750 .75500 .00250
54 .25375 .87750 .12750
55 .37750 .75500 .13625
56 .38500 .87750 .00375
57 .50375 .75875 .01250
58 .50375 .87875 .12875
59 .63375 .75500 .13500
60 .62875 .87750 .00375
61 .75500 .75375 .00250
62 .75375 .87875 .12875
63 .88000 .75500 .13000
64 .87750 .87875 .01125
66 .00250 .00375 .22875
65 .00375 .11500 .34125
68 .11500 .00625 .34000
67 .11500 .11500 .22875
70 .23750 .00375 .23125
69 .22875 .11625 .34000
72 .34000 .00375 .34250
71 .34000 .11500 .23000
73 .50375 .00250 .25375
74 .50875 .12750 .37750
75 .63000 .00500 .37750
76 .62750 .12875 .25250
77 .75250 .00250 .25375
78 .75500 .12750 .38750
79 .87750 .00375 .37750
80 .87875 .12750 .25500
82 .00375 .22750 .22875
81 .00375 .34000 .34125
84 .11750 .23500 .34125
83 .11625 .34125 .23000
86 .22875 .22750 .23250
85 .22875 .34000 .34125
88 .34125 .22750 .34125
87 .34000 .34125 .23125
89 .50875 .25500 .25875
90 .50375 .37875 .37875
91 .63500 .25500 .37750
92 .62875 .37875 .25250
93 .75250 .25375 .25250
94 .75375 .37750 .37875
95 .88000 .25250 .37750
96 .87750 .37875 .25375
97 .00375 .50250 .25375
98 .00375 .62750 .37875
99 .12875 .50750 .37875
100 .12750 .62750 .25250
101 .25500 .50375 .25250
102 .25375 .62875 .37875
103 .37750 .50250 .37750
104 .38750 .62875 .25375
105 .50250 .50250 .25375
106 .50375 .62750 .37875
107 .62750 .51250 .37750
108 .62875 .63000 .25250
109 .75250 .50250 .25375
110 .75375 .63000 .37750
111 .88750 .50375 .37750
112 .87750 .63625 .25750
113 .01250 .75500 .25375
114 .00250 .87750 .38000
115 .13250 .75250 .38750
116 .12875 .87875 .25375
117 .25375 .75375 .25250
118 .25250 .88000 .37875
119 .37875 .75250 .37750
120 .37750 .87875 .25750
121 .50625 .76125 .25375
122 .50250 .88000 .38750
123 .62875 .75250 .37750
124 .62750 .87750 .25750
125 .75375 .75375 .25375
126 .75250 .87750 .38250
127 .87750 .75375 .38000
128 .88125 .87875 .25500
129 .01125 .00500 .50250
130 .00250 .13250 .62875
131 .13000 .00250 .62875
132 .12875 .12875 .50500
133 .25250 .00250 .50500
134 .25375 .12750 .62875
135 .37875 .00375 .63000
136 .38250 .12750 .50500
137 .50375 .00250 .50250
138 .50250 .13375 .62875
139 .62875 .00375 .62875
140 .63500 .12875 .50250
141 .76125 .00250 .50375
142 .75250 .13250 .62875
143 .88500 .00375 .62875
144 .87875 .13000 .50375
145 .00375 .25250 .50375
146 .00250 .37750 .63500
147 .12875 .25375 .62750
148 .12750 .38375 .50375
149 .26000 .25375 .50250
150 .25375 .37750 .63375
151 .38250 .25375 .62875
152 .37875 .38000 .50750
153 .50250 .25250 .51000
154 .51000 .37875 .63750
155 .63125 .25250 .62750
156 .62875 .37750 .50250
157 .75875 .25375 .51250
158 .75375 .37750 .62750
159 .87875 .25250 .62875
160 .87750 .37750 .50250
161 .00250 .50375 .50250
162 .00375 .62875 .62750
163 .13000 .50250 .63750
164 .12875 .62875 .50500
165 .25250 .50500 .50250
166 .25875 .63000 .63000
167 .37750 .50250 .63750
168 .38625 .63000 .50875
169 .50250 .50750 .50375
170 .50750 .62750 .62750
171 .62875 .50625 .62750
172 .62875 .62875 .50375
173 .75375 .50500 .50500
174 .75375 .63750 .63375
175 .88000 .50250 .62750
176 .88375 .62750 .51125
177 .00750 .76125 .50250
178 .00250 .88625 .62750
179 .13125 .75500 .62750
180 .12750 .88500 .50250
181 .25375 .75375 .50375
182 .25375 .87875 .62875
183 .38250 .75375 .62875
184 .37875 .87750 .50375
185 .50250 .76250 .50250
186 .50250 .87750 .62875
187 .63750 .76000 .62875
188 .62750 .87875 .50250
189 .75375 .75375 .50250
190 .76125 .87750 .63000
191 .88750 .75500 .62750
192 .87750 .87875 .51250
193 .00250 .01000 .75625
194 .01125 .13750 .88625
195 .12750 .00375 .87875
196 .12750 .12875 .75250
197 .25375 .00500 .75250
198 .25250 .13000 .88625
199 .37875 .00375 .87875
200 .38500 .12875 .75250
201 .50250 .00875 .75375
202 .50375 .13375 .88250
203 .63000 .00375 .87875
204 .63500 .12875 .75375
205 .75375 .00250 .75375
206 .75875 .12750 .87875
207 .87875 .00375 .87875
208 .87750 .13750 .75375
209 .00375 .25500 .76125
210 .00375 .38000 .88250
211 .12875 .26125 .87750
212 .13000 .37750 .75375
213 .25250 .26125 .75250
214 .25500 .37875 .88000
215 .38125 .25875 .87750
216 .37750 .37875 .75250
217 .50500 .25375 .75375
218 .50375 .38250 .87750
219 .63500 .25250 .87875
220 .63750 .38125 .75500
221 .75500 .25625 .76250
222 .75250 .38000 .87750
223 .87750 .25375 .88625
224 .87750 .37875 .75875
225 .01125 .50250 .75250
226 .00250 .63750 .88750
227 .12875 .50375 .87750
228 .12750 .62750 .75375
229 .26000 .51000 .75250
230 .26000 .62875 .87750
231 .38000 .50250 .87750
232 .38000 .63000 .75375
233 .50875 .51125 .75750
234 .50250 .62750 .88000
235 .62750 .50250 .87750
236 .62750 .63625 .75875
237 .75375 .50250 .76125
238 .75375 .62750 .87875
239 .88625 .51250 .87750
240 .87875 .62875 .75250
241 .00375 .75250 .75250
242 .00250 .87750 .87875
243 .12750 .75375 .87750
244 .12750 .87750 .75875
245 .25500 .75375 .75500
246 .26250 .87875 .87750
247 .37875 .75250 .88625
248 .37875 .87750 .75375
249 .50750 .75250 .75250
250 .50250 .87875 .87875
251 .62875 .75375 .87750
252 .63000 .87750 .75250
253 .75375 .75250 .75250
254 .75250 .88500 .88500
255 .87750 .75375 .87875
256 .87875 .88125 .75375
