ITEM: TIMESTEP
1528900
ITEM: NUMBER OF ATOMS
256
ITEM: BOX BOUNDS pp pp pp
0 8.0
0 8.0
0 8.0
ITEM: ATOMS id xs ys zs
1 .00625 .00375 .01125
2 .00375 .11500 .12375
3 .11500 .00500 .11500
4 .11625 .11500 .00500
5 .22750 .00375 .00375
6 .22750 .11625 .12500
7 .34875 .00250 .11750
8 .34125 .11625 .00250
9 .50250 .00375 .00375
10 .50375 .12875 .12750
11 .63625 .01000 .12875
12 .62750 .13000 .00375
13 .75375 .00375 .00250
14 .75750 .12750 .12875
15 .88000 .00250 .12750
16 .87750 .13625 .00250
17 .00375 .22875 .00250
18 .00500 .34000 .11625
19 .11750 .23000 .11625
20 .12500 .34750 .00875
21 .23625 .22875 .00750
22 .22750 .34000 .11625
23 .34125 .23125 .11500
24 .34125 .34250 .01125
25 .50250 .25250 .01000
26 .50250 .37750 .13625
27 .62750 .25750 .12875
28 .62875 .37750 .00500
29 .75250 .25375 .00250
30 .75250 .38250 .13375
31 .88750 .25500 .12875
32 .87875 .38000 .00250
33 .00375 .50250 .00500
34 .00875 .62875 .12875
35 .13625 .50250 .13750
36 .13500 .63250 .01000
37 .25375 .50875 .00375
38 .25375 .63125 .12750
39 .38000 .50500 .12750
40 .37750 .62750 .00250
41 .50375 .50375 .00750
42 .50250 .62875 .12750
43 .62750 .51250 .13000
44 .63000 .63625 .00250
45 .75375 .50375 .00375
46 .75250 .62875 .13000
47 .87875 .50250 .13750
48 .88000 .62875 .00375
49 .00375 .75500 .00500
50 .00250 .88500 .12750
51 .12750 .75375 .12875
52 .12750 .87750 .00250
53 .25250 .75250 .00625
54 .25250 .87875 .12875
55 .37750 .75500 .12750
56 .38750 .87875 .00250
57 .50375 .75750 .00750
58 .50500 .88250 .12875
59 .62875 .75250 .13625
60 .62875 .87875 .00250
61 .75375 .75250 .00250
62 .75250 .88375 .13000
63 .87875 .75500 .12750
64 .87750 .87750 .00375
65 .00375 .00500 .22875
66 .00250 .11500 .34250
67 .11500 .00250 .34125
68 .11625 .11750 .23375
69 .22875 .00375 .22875
70 .23125 .11625 .34000
71 .34125 .00375 .34000
72 .34125 .11500 .22750
73 .50500 .00250 .25625
74 .50750 .12750 .37875
75 .62875 .00750 .38125
76 .62875 .13000 .25750
77 .75625 .00375 .25375
78 .75500 .13000 .37750
79 .87750 .01000 .38000
80 .87750 .12875 .25250
81 .01000 .23000 .22875
82 .00375 .34000 .34125
83 .11625 .23375 .34375
84 .11625 .34000 .22875
85 .22875 .23750 .22875
86 .22750 .34125 .34125
87 .34375 .22875 .34125
88 .34375 .34000 .22875
89 .50375 .25375 .26000
90 .50250 .38625 .37875
91 .62875 .25375 .37875
92 .62875 .38000 .25750
93 .75875 .25250 .25250
94 .75625 .37875 .37750
95 .88000 .25625 .38000
96 .88375 .37750 .25750
97 .00250 .50750 .25250
98 .00375 .62875 .37750
99 .13250 .50250 .38375
100 .13625 .62875 .26000
101 .25250 .51000 .25250
102 .25250 .62875 .38250
103 .37750 .50625 .37875
104 .37750 .63375 .26000
105 .51125 .50375 .25250
106 .51125 .62750 .37750
107 .62750 .50375 .37875
108 .62875 .63375 .25250
109 .75375 .50250 .25375
110 .75250 .63000 .37750
111 .87875 .50250 .37750
112 .88000 .62875 .25500
113 .00500 .75500 .25375
114 .00250 .87750 .38750
115 .12875 .75375 .37750
116 .12875 .87875 .25500
117 .25500 .75375 .25375
118 .25250 .87875 .37875
119 .38000 .75250 .38375
120 .37750 .88000 .25250
121 .50375 .75375 .25375
122 .50375 .87875 .37875
123 .62875 .75250 .38625
124 .62750 .88125 .25250
125 .75250 .76000 .25375
126 .75375 .87750 .37875
127 .88000 .75250 .37875
128 .88500 .87750 .25375
129 .00375 .01125 .50875
130 .00250 .12750 .62750
131 .12875 .00500 .62875
132 .13000 .13125 .50625
133 .25250 .00375 .50250
134 .25250 .12750 .63750
135 .37875 .00875 .62750
136 .37750 .13500 .50625
137 .50375 .00500 .50250
138 .50250 .12875 .62875
139 .62750 .00250 .63000
140 .62875 .12750 .51125
141 .75875 .00875 .50375
142 .75375 .12750 .62750
143 .87875 .00875 .62875
144 .88250 .12875 .50375
145 .00375 .25375 .50500
146 .00375 .38000 .62750
147 .12750 .25375 .63125
148 .13000 .38750 .50375
149 .25375 .25875 .50250
150 .25250 .37875 .63750
151 .37750 .25250 .62875
152 .37875 .37750 .50250
153 .50250 .26250 .50250
154 .50375 .37750 .62750
155 .62750 .25375 .62750
156 .62875 .37750 .50500
157 .75250 .25250 .50375
158 .75375 .38625 .62875
159 .87750 .26000 .62750
160 .87750 .37750 .50250
161 .00250 .51000 .50375
162 .00375 .62750 .62750
163 .12875 .50250 .63375
164 .13000 .62750 .50375
165 .25375 .50375 .50500
166 .25375 .62875 .63250
167 .37875 .50500 .62750
168 .38625 .62875 .50250
169 .50375 .50375 .51000
170 .50375 .63000 .62750
171 .63000 .50500 .62750
172 .62875 .62750 .50750
173 .75375 .50250 .50375
174 .76250 .63750 .62750
175 .87875 .50250 .62875
176 .87875 .63000 .50250
177 .00375 .75375 .50375
178 .00250 .87875 .62875
179 .12875 .75250 .63000
180 .12750 .87750 .50375
181 .25750 .75375 .50375
182 .25250 .87875 .62875
183 .37875 .75375 .62750
184 .38750 .88500 .50250
185 .50250 .75375 .50375
186 .51250 .87875 .63000
187 .62750 .75375 .62875
188 .62875 .88250 .50500
189 .75375 .76000 .50250
190 .76250 .87750 .62750
191 .88500 .75625 .62750
192 .87875 .87875 .50250
193 .00625 .00250 .75250
194 .00875 .12750 .88000
195 .12875 .00875 .88375
196 .12750 .12750 .76125
197 .25500 .00875 .75250
198 .25250 .12875 .87750
199 .38000 .00375 .87875
200 .37875 .12875 .75375
201 .50250 .00625 .75250
202 .50250 .12750 .87750
203 .62750 .00250 .88625
204 .62875 .13250 .75250
205 .75875 .00375 .75375
206 .75250 .12750 .88750
207 .88000 .00875 .88375
208 .87750 .12750 .75750
209 .00375 .26000 .75375
210 .00500 .37750 .87875
211 .12875 .25250 .87750
212 .12875 .37875 .75500
213 .25375 .25250 .75250
214 .25375 .37875 .88250
215 .37750 .25250 .87750
216 .37750 .38000 .75375
217 .50750 .26250 .75250
218 .50375 .37750 .88500
219 .62750 .25250 .88500
220 .62875 .38125 .75250
221 .75375 .25250 .75250
222 .75875 .37875 .88375
223 .88250 .25250 .87875
224 .87875 .38250 .75250
225 .00250 .50625 .76125
226 .00500 .62875 .87750
227 .13250 .50250 .87750
228 .12875 .62875 .76125
229 .25250 .50375 .75250
230 .25500 .63375 .88000
231 .37875 .50375 .88000
232 .37875 .63500 .76125
233 .50875 .50250 .75375
234 .50250 .62875 .87750
235 .62875 .50375 .88000
236 .63500 .62875 .76000
237 .75375 .50375 .75250
238 .75375 .62750 .87750
239 .88250 .50375 .87875
240 .87750 .62875 .75875
241 .00250 .75250 .76125
242 .00375 .88625 .87750
243 .13500 .75250 .87875
244 .13375 .87750 .75250
245 .25750 .75500 .75250
246 .25375 .87750 .88000
247 .37750 .75625 .88000
248 .38375 .88500 .75250
249 .51125 .75625 .75375
250 .51000 .87750 .87875
251 .62750 .75375 .87750
252 .62750 .87875 .75375
253 .75250 .75375 .75875
254 .75250 .88125 .87750
255 .88000 .75875 .87875
256 .87875 .88000 .75250
