ITEM: TIMESTEP
1528520
ITEM: NUMBER OF ATOMS
256
ITEM: BOX BOUNDS pp pp pp
0 8.0
0 8.0
0 8.0
ITEM: ATOMS id xs ys zs
1 .00500 .00375 .00875
2 .00375 .11625 .12250
3 .11625 .00250 .12125
4 .11500 .11625 .00375
5 .22875 .00500 .00250
6 .23000 .11500 .11625
7 .34250 .00500 .11500
8 .34500 .11625 .00375
9 .50875 .01125 .00500
10 .50250 .12750 .12750
11 .62750 .00250 .13125
12 .62750 .12750 .01125
13 .76250 .00250 .00375
14 .75500 .12750 .13500
15 .88000 .00625 .12750
16 .87875 .13000 .00500
17 .00625 .23000 .00250
18 .00250 .34750 .12250
19 .11625 .22750 .12125
20 .11500 .34875 .01000
21 .22875 .23000 .00500
22 .22875 .34250 .12250
23 .34500 .23375 .11500
24 .34125 .34125 .00250
25 .50500 .25500 .00375
26 .50375 .37875 .12875
27 .63500 .25375 .12750
28 .62875 .37750 .00250
29 .75250 .25500 .00500
30 .75500 .37750 .12875
31 .87875 .25875 .12750
32 .87750 .37875 .00250
33 .00875 .50250 .00375
34 .00375 .63625 .12875
35 .12875 .50250 .12750
36 .12875 .63250 .01250
37 .25250 .50375 .00250
38 .25750 .63250 .12750
39 .37750 .50750 .12875
40 .38000 .62750 .01250
41 .50250 .51125 .00250
42 .50375 .62875 .12750
43 .63000 .50500 .13000
44 .62750 .63500 .00750
45 .75375 .50250 .00250
46 .75875 .62750 .13000
47 .87875 .50250 .12875
48 .88000 .63000 .00250
49 .00375 .75625 .00250
50 .00250 .88000 .12750
51 .12750 .75250 .12750
52 .12750 .87750 .00500
53 .25500 .75250 .00250
54 .25375 .88000 .12875
55 .37875 .75500 .12750
56 .38125 .87750 .01000
57 .50375 .75250 .01250
58 .50500 .88750 .12875
59 .62750 .75375 .12875
60 .63750 .87875 .00375
61 .75250 .75250 .00500
62 .76125 .87875 .12875
63 .87750 .75250 .12875
64 .88000 .88625 .00250
65 .01125 .00375 .22750
66 .00375 .11625 .34750
67 .11750 .00500 .34625
68 .11625 .11625 .22875
69 .22875 .00250 .22750
70 .23000 .11875 .34875
71 .34000 .00250 .34125
72 .34000 .11500 .23000
73 .50500 .00375 .25250
74 .50750 .12875 .38125
75 .62750 .00250 .38000
76 .62875 .12875 .25375
77 .75375 .00375 .25375
78 .75250 .12750 .37875
79 .87750 .00375 .37750
80 .87750 .13000 .25250
81 .00375 .22750 .22750
82 .00500 .34250 .34000
83 .11500 .22875 .34250
84 .11625 .34125 .22750
85 .22875 .23000 .22875
86 .22875 .34125 .34500
87 .34625 .22875 .34875
88 .34000 .34125 .22875
89 .50375 .25250 .25375
90 .50500 .37750 .37875
91 .63625 .25500 .37875
92 .63375 .37750 .25875
93 .75625 .25875 .25375
94 .75500 .37875 .37875
95 .88000 .25375 .37750
96 .87750 .38250 .25250
97 .00375 .50375 .25375
98 .00250 .62750 .38250
99 .12750 .50250 .37750
100 .12875 .63125 .25250
101 .25250 .50875 .25375
102 .25375 .62875 .37750
103 .37750 .50375 .37750
104 .37750 .63000 .25375
105 .51125 .50375 .25250
106 .50250 .62875 .38125
107 .62875 .50250 .38500
108 .62750 .62750 .25250
109 .75875 .50250 .25250
110 .75250 .63125 .37750
111 .88000 .50375 .37750
112 .87875 .62750 .25375
113 .01000 .76250 .25750
114 .00375 .87875 .37750
115 .13250 .76250 .37875
116 .13750 .87750 .25250
117 .25625 .75375 .26125
118 .25375 .88500 .37750
119 .37875 .75250 .37875
120 .37875 .87750 .25375
121 .51000 .75250 .25250
122 .50250 .88000 .38000
123 .62875 .75375 .38750
124 .62750 .87750 .25750
125 .75250 .75625 .25250
126 .75250 .87750 .38125
127 .87875 .75375 .37750
128 .87875 .87875 .25250
129 .00250 .00250 .50500
130 .00625 .12875 .62875
131 .12875 .00250 .62750
132 .12750 .12875 .50375
133 .25375 .01125 .50375
134 .25250 .12750 .62750
135 .37875 .00250 .63000
136 .38750 .12750 .50250
137 .51125 .00250 .50250
138 .51125 .12750 .62875
139 .62875 .00250 .62875
140 .63000 .13000 .50625
141 .75250 .00500 .50500
142 .75250 .12750 .62875
143 .88375 .01000 .63125
144 .88625 .13125 .50625
145 .00375 .25875 .50250
146 .00250 .37750 .62750
147 .13500 .25625 .62875
148 .12750 .37875 .50375
149 .25250 .25500 .50375
150 .25250 .38250 .62750
151 .38375 .25250 .62750
152 .37750 .37750 .50750
153 .50250 .26250 .50750
154 .50250 .38625 .62750
155 .63375 .25875 .62875
156 .62750 .38375 .50750
157 .75250 .25250 .50250
158 .75375 .37750 .62750
159 .88375 .25250 .62750
160 .87875 .38000 .50375
161 .00250 .50250 .50375
162 .01250 .62875 .62750
163 .13625 .50375 .62750
164 .12875 .62750 .50375
165 .25250 .50250 .51000
166 .25250 .63750 .62750
167 .37875 .50250 .62750
168 .37750 .63125 .50250
169 .50375 .50250 .51125
170 .50250 .62875 .63000
171 .63375 .50250 .62750
172 .63000 .62875 .50375
173 .75375 .50250 .51250
174 .75375 .62875 .63000
175 .87875 .50375 .62875
176 .87875 .62875 .50750
177 .00375 .75375 .50375
178 .00375 .87875 .63000
179 .13375 .76125 .63250
180 .13750 .87875 .50375
181 .25375 .75750 .50500
182 .26250 .87750 .62875
183 .37875 .75250 .63250
184 .37750 .87750 .51250
185 .50500 .75375 .50250
186 .50250 .88125 .62750
187 .62875 .75500 .63625
188 .62875 .87875 .50625
189 .75250 .75375 .50250
190 .76000 .87750 .62875
191 .87750 .75375 .62750
192 .87750 .88000 .50250
193 .00875 .01250 .75375
194 .00250 .12750 .87875
195 .12750 .00375 .88250
196 .12875 .12750 .76250
197 .25500 .00250 .75375
198 .26250 .12875 .87750
199 .37875 .00250 .87750
200 .38000 .13375 .75375
201 .50250 .00500 .75375
202 .50375 .13375 .87875
203 .63000 .00500 .87875
204 .63000 .12750 .75375
205 .75375 .00375 .75250
206 .75500 .13000 .87750
207 .87750 .01250 .87875
208 .87875 .12875 .75375
209 .00500 .25250 .75250
210 .00500 .38500 .87750
211 .12875 .25250 .87875
212 .13000 .38375 .75750
213 .25250 .25250 .75375
214 .25375 .37875 .87750
215 .37875 .25375 .88125
216 .37750 .37750 .75250
217 .50375 .25375 .75375
218 .50375 .37750 .87750
219 .62875 .25250 .87750
220 .63125 .38250 .75375
221 .75250 .26125 .75750
222 .75500 .37750 .87750
223 .88000 .25250 .87750
224 .87750 .37750 .75375
225 .00250 .50375 .75875
226 .00375 .62875 .88750
227 .13000 .50375 .87875
228 .13000 .63750 .75500
229 .25250 .51125 .75375
230 .25375 .62750 .88125
231 .38625 .50375 .88000
232 .37875 .63125 .75250
233 .50250 .51250 .75250
234 .50250 .62750 .88000
235 .62750 .50375 .87750
236 .62750 .63625 .75375
237 .75500 .50250 .75375
238 .75375 .63250 .88000
239 .87875 .50250 .87875
240 .87750 .63750 .75625
241 .00375 .75500 .75875
242 .00250 .87750 .88000
243 .12750 .75625 .87750
244 .12750 .87750 .75500
245 .25375 .75250 .75375
246 .25375 .87750 .87750
247 .38375 .75375 .87875
248 .37875 .87750 .75875
249 .50250 .75375 .76000
250 .50250 .87875 .87750
251 .62750 .75250 .87750
252 .62875 .87750 .75500
253 .75250 .75375 .75375
254 .75500 .87750 .87875
255 .88125 .75375 .87875
256 .87750 .87750 .75250
