ITEM: TIMESTEP
1529760
ITEM: NUMBER OF ATOMS
256
ITEM: BOX BOUNDS pp pp pp
0 8.0
0 8.0
0 8.0
ITEM: ATOMS id xs ys zs
2 .00375 .01125 .00375
1 .00375 .11625 .11625
4 .11500 .00750 .11625
3 .11625 .11625 .00375
6 .22750 .00250 .00375
5 .23625 .12375 .11500
8 .34000 .00375 .11625
7 .34250 .11500 .00250
9 .50250 .00375 .00375
10 .50500 .12875 .13000
11 .63000 .00500 .12750
12 .62875 .13375 .00250
13 .75625 .00375 .00375
14 .75375 .13500 .13000
15 .87875 .00250 .12750
16 .87875 .12875 .00375
18 .00375 .23250 .00250
17 .00250 .34125 .11500
20 .11500 .22750 .11500
19 .11500 .34000 .00250
22 .22750 .22750 .00500
21 .22750 .34000 .11750
24 .35000 .22750 .11625
23 .34000 .34250 .00375
25 .50500 .25500 .00250
26 .50625 .37875 .12875
27 .62875 .25250 .12750
28 .63375 .38625 .01250
29 .75875 .25375 .00625
30 .75375 .37750 .13000
31 .87750 .25625 .12750
32 .87875 .37875 .00250
33 .00250 .50625 .00375
34 .00250 .62750 .13500
35 .12750 .50375 .12750
36 .12875 .62875 .00500
37 .25500 .50500 .00375
38 .25250 .62750 .12875
39 .37750 .50500 .13500
40 .37750 .63500 .00250
41 .50375 .50375 .00250
42 .50250 .62875 .13000
43 .62750 .50750 .12875
44 .62875 .62875 .00250
45 .75250 .50375 .00250
46 .75500 .62875 .13500
47 .87875 .50375 .13750
48 .87750 .62750 .00500
49 .00375 .75375 .00375
50 .00375 .88000 .12875
51 .13000 .75250 .12750
52 .13000 .87750 .00250
53 .25250 .75375 .00250
54 .25750 .88000 .12750
55 .38500 .75375 .12875
56 .37875 .88375 .00375
57 .50375 .75250 .00250
58 .50375 .87750 .12750
59 .63625 .75375 .12875
60 .63750 .88000 .00250
61 .76250 .75875 .00375
62 .75250 .87750 .12875
63 .87750 .75500 .12750
64 .87750 .88500 .00250
66 .00375 .00250 .22875
65 .00250 .12125 .34125
68 .11500 .00250 .35000
67 .12375 .12125 .22750
70 .22750 .00250 .23000
69 .23000 .11750 .34125
72 .34125 .00250 .34125
71 .34750 .11500 .22750
73 .50375 .00250 .25250
74 .50250 .13000 .37750
75 .62750 .00375 .37875
76 .62750 .12750 .25250
77 .75500 .01250 .25375
78 .75250 .13375 .38500
79 .87750 .00375 .37750
80 .87875 .12875 .26125
82 .00250 .23625 .23125
81 .00375 .34625 .34500
84 .11625 .23125 .34125
83 .12375 .34125 .22875
86 .22875 .22875 .23375
85 .23000 .34250 .34125
88 .34875 .22875 .34125
87 .34250 .35000 .23750
89 .50375 .25375 .25500
90 .50375 .37750 .37750
91 .62750 .25750 .37875
92 .62875 .38625 .25250
93 .75500 .25375 .25250
94 .75250 .37750 .37750
95 .87750 .25250 .37875
96 .87750 .38000 .25375
97 .00625 .51125 .25625
98 .00250 .62875 .38000
99 .12750 .51250 .38250
100 .13625 .63375 .25375
101 .25250 .50500 .25500
102 .25375 .62750 .37750
103 .38375 .50250 .37750
104 .37875 .63125 .25250
105 .50250 .50250 .25500
106 .51000 .62875 .37750
107 .62750 .50250 .37750
108 .62750 .62750 .25500
109 .75375 .51125 .26000
110 .75375 .62875 .38500
111 .87875 .50250 .37875
112 .87875 .63500 .26000
113 .00375 .75375 .25500
114 .01125 .87750 .37750
115 .12875 .75250 .37750
116 .12750 .87875 .25250
117 .25375 .75375 .25375
118 .25250 .88000 .37750
119 .37875 .75250 .38000
120 .37875 .87875 .25250
121 .50250 .75250 .25500
122 .50250 .88000 .38750
123 .62750 .75375 .38750
124 .62750 .88500 .25500
125 .76000 .75375 .25250
126 .75250 .87750 .37750
127 .87875 .75250 .37750
128 .87750 .87750 .25375
129 .00500 .00250 .50250
130 .00375 .13000 .62750
131 .12875 .00250 .62750
132 .12750 .12750 .50375
133 .25500 .00375 .50250
134 .25375 .12875 .62875
135 .38625 .00750 .62750
136 .37750 .12875 .50250
137 .50250 .00250 .50250
138 .50375 .13000 .62750
139 .63000 .00375 .63000
140 .62750 .12750 .51250
141 .75375 .00375 .50250
142 .75250 .12875 .63250
143 .88000 .00625 .62750
144 .88000 .12750 .50500
145 .00250 .25250 .51125
146 .01125 .37875 .63000
147 .12875 .26125 .62875
148 .12750 .38375 .50375
149 .25250 .25375 .50250
150 .25750 .37750 .62875
151 .37875 .25250 .62875
152 .37750 .37750 .51000
153 .50250 .25250 .50375
154 .50500 .37750 .62875
155 .62750 .25375 .63000
156 .62750 .38000 .50500
157 .75375 .25750 .51000
158 .75375 .37750 .63250
159 .87875 .25250 .63625
160 .88750 .37750 .50250
161 .00875 .50375 .51000
162 .00250 .63500 .62750
163 .12875 .51000 .62875
164 .12875 .62750 .50250
165 .25625 .50375 .50875
166 .25500 .63500 .63000
167 .38375 .50750 .62875
168 .37750 .63125 .50500
169 .51000 .50250 .50250
170 .50875 .62875 .63000
171 .63625 .50375 .62875
172 .63125 .63750 .50375
173 .75250 .50375 .50250
174 .75375 .62750 .63000
175 .87875 .50375 .62750
176 .87875 .63500 .50375
177 .00750 .75375 .50375
178 .00375 .88000 .62875
179 .12875 .75250 .62750
180 .12875 .87750 .51250
181 .25250 .75750 .50375
182 .25375 .87875 .63000
183 .37750 .75375 .63000
184 .37750 .88250 .50250
185 .51125 .75250 .50375
186 .50500 .87875 .62875
187 .62875 .75500 .62875
188 .63375 .87875 .50500
189 .75750 .76250 .50250
190 .75250 .87750 .62750
191 .88000 .76125 .62750
192 .87875 .87750 .50750
193 .00250 .01125 .76125
194 .00375 .12875 .87750
195 .13375 .00250 .87750
196 .12875 .13125 .75375
197 .25375 .01125 .75750
198 .25750 .12750 .87875
199 .38625 .00250 .88750
200 .38000 .12750 .75375
201 .51125 .00500 .75375
202 .50250 .12750 .87750
203 .62875 .00500 .87875
204 .63375 .12875 .75750
205 .75250 .00625 .75375
206 .75500 .12875 .87875
207 .87875 .00375 .88500
208 .87750 .12875 .75375
209 .00375 .25250 .75250
210 .00375 .38750 .88000
211 .13625 .25250 .87875
212 .12750 .37875 .75375
213 .25875 .25375 .75375
214 .25250 .37750 .87750
215 .37875 .25250 .87875
216 .37750 .37750 .75250
217 .50375 .25250 .75250
218 .51250 .38625 .87875
219 .62875 .25250 .87875
220 .62750 .38750 .75500
221 .75250 .25250 .75500
222 .75250 .38125 .87750
223 .88625 .26000 .87750
224 .87750 .37750 .75250
225 .01000 .51000 .75375
226 .00250 .62875 .87875
227 .12750 .50625 .87875
228 .13000 .62875 .76125
229 .25250 .50375 .75375
230 .25250 .62750 .87750
231 .38375 .50375 .87875
232 .37875 .62875 .76250
233 .50375 .50500 .75250
234 .50250 .62750 .88625
235 .62750 .50250 .87875
236 .62750 .62875 .75625
237 .75250 .50375 .75250
238 .75375 .62875 .87750
239 .87875 .50375 .87750
240 .88000 .63250 .75875
241 .00375 .75250 .75250
242 .00375 .87750 .87750
243 .13250 .75500 .87875
244 .12875 .87750 .75250
245 .25375 .75500 .75375
246 .25250 .88000 .87875
247 .38000 .75500 .87750
248 .38000 .87875 .75250
249 .50250 .75250 .75375
250 .50375 .87875 .87750
251 .62875 .75250 .87750
252 .62875 .87875 .75375
253 .75250 .75375 .75250
254 .75250 .88625 .87750
255 .87875 .75500 .87750
256 .87750 .88625 .75500
