ITEM: TIMESTEP
MYTIMESTEP
ITEM: NUMBER OF ATOMS
256
ITEM: BOX BOUNDS pp pp pp
0 MYCUBESIZE
0 MYCUBESIZE
0 MYCUBESIZE
ITEM: ATOMS id xs ys zs
